 DBCSR| Multiplication driver                                               BLAS
 DBCSR| Multrec recursion limit                                              512
 DBCSR| Multiplication stack size                                           1000
 DBCSR| Maximum elements for images                                    UNLIMITED
 DBCSR| Multiplicative factor virtual images                                   1
 DBCSR| Multiplication size stacks                                             3
 DBCSR| Number of 3D layers                                               SINGLE
 DBCSR| Use MPI memory allocation                                              T
 DBCSR| Use RMA algorithm                                                      F
 DBCSR| Use Communication thread                                               T
 DBCSR| Communication thread load                                             87


  **** **** ******  **  PROGRAM STARTED AT               2018-08-09 08:01:00.550
 ***** ** ***  *** **   PROGRAM STARTED ON                              nid00024
 **    ****   ******    PROGRAM STARTED BY                                p02490
 ***** **    ** ** **   PROGRAM PROCESS ID                                 34769
  **** **  *******  **  PROGRAM STARTED IN /lus/scratch/p02490/rundir/cp2k-bdw_c
                                           ce-8.7_libsci-18.07_cray-fftw-3.3.6

 CP2K| version string:                                          CP2K version 5.1
 CP2K| source code revision number:                                    svn:18091
 CP2K| cp2kflags: omp fftw3 parallel mpi3 scalapack has_no_shared_glibc         
 CP2K| is freely available from                            https://www.cp2k.org/
 CP2K| Program compiled at                          Thu  9 Aug 07:27:27 CDT 2018
 CP2K| Program compiled on                                                  swan
 CP2K| Program compiled for             bdw_cce-8.7_libsci-18.07_cray-fftw-3.3.6
 CP2K| Data directory path              /lus/scratch/p02490/rundir/cp2k-5.1/data
 CP2K| Input file name        /lus/scratch/p02490/rundir/cp2k-5.1/tests/QS/bench
 
 GLOBAL| Force Environment number                                              1
 GLOBAL| Basis set file name                                      GTH_BASIS_SETS
 GLOBAL| Potential file name                                           POTENTIAL
 GLOBAL| MM Potential file name                                     MM_POTENTIAL
 GLOBAL| Coordinate file name                                      __STD_INPUT__
 GLOBAL| Method name                                                        CP2K
 GLOBAL| Project name                                                     H2O-64
 GLOBAL| Preferred FFT library                                             FFTW3
 GLOBAL| Preferred diagonalization lib.                                       SL
 GLOBAL| Run type                                                             MD
 GLOBAL| All-to-all communication in single precision                          F
 GLOBAL| FFTs using library dependent lengths                                  F
 GLOBAL| Global print level                                                  LOW
 GLOBAL| Total number of message passing processes                            44
 GLOBAL| Number of threads for this process                                    1
 GLOBAL| This output is from process                                           0
 GLOBAL| CPU model name :  Intel(R) Xeon(R) CPU E5-2699 v4 @ 2.20GHz

 MEMORY| system memory details [Kb]
 MEMORY|                        rank 0           min           max       average
 MEMORY| MemTotal            131918804     131918804     131918804     131918804
 MEMORY| MemFree             128102176     128102176     128102176     128102176
 MEMORY| Buffers                  1832          1832          1832          1832
 MEMORY| Cached                 294516        294516        294516        294516
 MEMORY| Slab                   169944        169944        169944        169944
 MEMORY| SReclaimable            18664         18664         18664         18664
 MEMORY| MemLikelyFree       128417188     128417188     128417188     128417188

 
 GENERATE|  Preliminary Number of Bonds generated:                             0
 GENERATE|  Achieved consistency in connectivity generation.

 *******************************************************************************
 *******************************************************************************
 **                                                                           **
 **     #####                         ##              ##                      **
 **    ##   ##            ##          ##              ##                      **
 **   ##     ##                       ##            ######                    **
 **   ##     ##  ##   ##  ##   #####  ##  ##   ####   ##    #####    #####    **
 **   ##     ##  ##   ##  ##  ##      ## ##   ##      ##   ##   ##  ##   ##   **
 **   ##  ## ##  ##   ##  ##  ##      ####     ###    ##   ######   ######    **
 **    ##  ###   ##   ##  ##  ##      ## ##      ##   ##   ##       ##        **
 **     #######   #####   ##   #####  ##  ##  ####    ##    #####   ##        **
 **           ##                                                    ##        **
 **                                                                           **
 **                                                ... make the atoms dance   **
 **                                                                           **
 **            Copyright (C) by CP2K developers group (2000 - 2017)           **
 **                                                                           **
 *******************************************************************************


 SCF PARAMETERS         Density guess:                                    ATOMIC
                        --------------------------------------------------------
                        max_scf:                                              50
                        max_scf_history:                                       0
                        max_diis:                                              4
                        --------------------------------------------------------
                        eps_scf:                                        1.00E-05
                        eps_scf_history:                                0.00E+00
                        eps_diis:                                       1.00E-01
                        eps_eigval:                                     1.00E-05
                        --------------------------------------------------------
                        level_shift [a.u.]:                                 0.00
                        --------------------------------------------------------
                        No outer SCF
 
 MD| Molecular Dynamics Protocol 
 MD| Ensemble Type                                                           NVE
 MD| Number of Time Steps                                                     10
 MD| Time Step [fs]                                                         0.50
 MD| Temperature [K]                                                      300.00
 MD| Temperature tolerance [K]                                              0.00
 MD| Print MD information every                                        1 step(s)
 MD| File type     Print frequency[steps]                             File names
 MD| Coordinates            1                                   H2O-64-pos-1.xyz
 MD| Velocities             1                                   H2O-64-vel-1.xyz
 MD| Energies               1                                      H2O-64-1.ener
 MD| Dump                  20                                   H2O-64-1.restart
 
 ROT| Rotational Analysis Info 
 ROT| Principal axes and moments of inertia in atomic units:
 ROT|                                1                 2                 3
 ROT| EIGENVALUES            0.174175353E+09   0.187507692E+09   0.199545123E+09
 ROT|      X                    -0.734964520       0.242599134       0.633224142
 ROT|      Y                    -0.044883650       0.914361712      -0.402402930
 ROT|      Z                    -0.676618513      -0.324173287      -0.661134682
 ROT| Numer of Rotovibrational vectors:     6

 Calculation of degrees of freedom
                                                      Number of atoms:       192
                                 Number of Intramolecular constraints:         0
                                 Number of Intermolecular constraints:         0
                                  Invariants(translation + rotations):         3
                                                   Degrees of freedom:       573


 Restraints Information
                                  Number of Intramolecular restraints:         0
                                  Number of Intermolecular restraints:         0
 ************************** Velocities initialization **************************
 Initial Temperature                                                    300.00 K
 COM velocity:           -0.000000000000     -0.000000000000     -0.000000000000
 *******************************************************************************


 Number of electrons:                                                        512
 Number of occupied orbitals:                                                256
 Number of molecular orbitals:                                               256

 Number of orbital functions:                                               2560
 Number of independent orbital functions:                                   2560

 Extrapolation method: initial_guess


 SCF WAVEFUNCTION OPTIMIZATION

  ----------------------------------- OT ---------------------------------------
  Minimizer      : DIIS                : direct inversion
                                         in the iterative subspace
                                         using   7 DIIS vectors
                                         safer DIIS on
  Preconditioner : FULL_KINETIC        : inversion of T + eS
  Precond_solver : DEFAULT
  stepsize       :    0.15000000                  energy_gap     :    0.20000000
  eps_taylor     :   0.10000E-15                  max_taylor     :             4
  ----------------------------------- OT ---------------------------------------

  Step     Update method      Time    Convergence         Total energy    Change
  ------------------------------------------------------------------------------
     1 OT DIIS     0.15E+00    0.9     0.01332027     -1059.3825079557 -1.06E+03
     2 OT DIIS     0.15E+00    0.6     0.00868183     -1073.0837973670 -1.37E+01
     3 OT DIIS     0.15E+00    0.8     0.00608177     -1082.3329449393 -9.25E+00
     4 OT DIIS     0.15E+00    0.7     0.00420419     -1088.9991944739 -6.67E+00
     5 OT DIIS     0.15E+00    0.6     0.00319228     -1092.5975694249 -3.60E+00
     6 OT DIIS     0.15E+00    0.6     0.00242089     -1095.2728736089 -2.68E+00
     7 OT DIIS     0.15E+00    0.6     0.00180823     -1097.1827110187 -1.91E+00
     8 OT DIIS     0.15E+00    0.6     0.00136563     -1098.4047633188 -1.22E+00
     9 OT DIIS     0.15E+00    0.6     0.00107154     -1099.0957253930 -6.91E-01
    10 OT DIIS     0.15E+00    0.6     0.00085958     -1099.5568478897 -4.61E-01
    11 OT DIIS     0.15E+00    0.6     0.00070902     -1099.8674344588 -3.11E-01
    12 OT DIIS     0.15E+00    0.6     0.00059349     -1100.0778291172 -2.10E-01
    13 OT DIIS     0.15E+00    0.6     0.00050949     -1100.2324062136 -1.55E-01
    14 OT DIIS     0.15E+00    0.6     0.00044833     -1100.3361495732 -1.04E-01
    15 OT DIIS     0.15E+00    0.6     0.00039690     -1100.4341573205 -9.80E-02
    16 OT DIIS     0.15E+00    0.6     0.00035862     -1100.5038829257 -6.97E-02
    17 OT DIIS     0.15E+00    0.6     0.00034534     -1100.5572959989 -5.34E-02
    18 OT DIIS     0.15E+00    0.6     0.00034139     -1100.5793052943 -2.20E-02
    19 OT DIIS     0.15E+00    0.6     0.00033463     -1100.5947747725 -1.55E-02
    20 OT SD       0.15E+00    0.6     0.00033658     -1100.6056260666 -1.09E-02
    21 OT DIIS     0.15E+00    0.6     0.00033500     -1100.6167319763 -1.11E-02
    22 OT DIIS     0.15E+00    0.6     0.00032752     -1100.6181772877 -1.45E-03
    23 OT DIIS     0.15E+00    0.6     0.00032184     -1100.6243788064 -6.20E-03
    24 OT DIIS     0.15E+00    0.6     0.00030944     -1100.6371111613 -1.27E-02
    25 OT SD       0.15E+00    0.6     0.00030022     -1100.6455945048 -8.48E-03
    26 OT DIIS     0.15E+00    0.6     0.00029911     -1100.6544335251 -8.84E-03
    27 OT DIIS     0.15E+00    0.6     0.00028894     -1100.6591662825 -4.73E-03
    28 OT SD       0.15E+00    0.6     0.00028473     -1100.6665469323 -7.38E-03
    29 OT SD       0.15E+00    0.6     0.00028442     -1100.6745080801 -7.96E-03
    30 OT SD       0.15E+00    0.6     0.00028480     -1100.6824637366 -7.96E-03
    31 OT SD       0.15E+00    0.6     0.00028544     -1100.6904451527 -7.98E-03
    32 OT DIIS     0.15E+00    0.6     0.00028617     -1100.6984643086 -8.02E-03
    33 OT SD       0.15E+00    0.6     0.00033212     -1100.7435639636 -4.51E-02
    34 OT SD       0.15E+00    0.6     0.00031463     -1100.7540641968 -1.05E-02
    35 OT SD       0.15E+00    0.6     0.00030588     -1100.7636402128 -9.58E-03
    36 OT SD       0.15E+00    0.6     0.00030057     -1100.7727489685 -9.11E-03
    37 OT SD       0.15E+00    0.6     0.00029679     -1100.7815697671 -8.82E-03
    38 OT SD       0.15E+00    0.6     0.00029367     -1100.7901809979 -8.61E-03
    39 OT DIIS     0.15E+00    0.6     0.00029082     -1100.7986166935 -8.44E-03
    40 OT SD       0.15E+00    0.6     0.00016832     -1100.9875398757 -1.89E-01
    41 OT DIIS     0.15E+00    0.6     0.00014749     -1100.9901042380 -2.56E-03
    42 OT DIIS     0.15E+00    0.6     0.00023359     -1100.9860270215  4.08E-03
    43 OT DIIS     0.15E+00    0.6     0.00017591     -1100.9988969354 -1.29E-02
    44 OT DIIS     0.15E+00    0.6     0.00022226     -1101.0010831344 -2.19E-03
    45 OT DIIS     0.15E+00    0.6     0.00015342     -1101.0160500105 -1.50E-02
    46 OT DIIS     0.15E+00    0.6     0.00005874     -1101.0255699553 -9.52E-03
    47 OT DIIS     0.15E+00    0.6     0.00007360     -1101.0255460652  2.39E-05
    48 OT DIIS     0.15E+00    0.6     0.00005773     -1101.0267774768 -1.23E-03
    49 OT DIIS     0.15E+00    0.6     0.00005383     -1101.0275719805 -7.95E-04
    50 OT DIIS     0.15E+00    0.6     0.00004287     -1101.0287889098 -1.22E-03

  Leaving inner SCF loop after reaching    50 steps.


  Electronic density on regular grids:       -512.0000015469       -0.0000015469
  Core density on regular grids:              512.0000000045        0.0000000045
  Total charge density on r-space grids:       -0.0000015425
  Total charge density g-space grids:          -0.0000015425

  Overlap energy of the core charge distribution:               0.00000562599749
  Self energy of the core charge distribution:              -2805.30499493854950
  Core Hamiltonian energy:                                    825.29378519360171
  Hartree energy:                                            1145.26167274506315
  Exchange-correlation energy:                               -266.27925753595861

  Total energy:                                             -1101.02878890984584

 *** WARNING in qs_scf.F:540 :: SCF run NOT converged ***


 ENERGY| Total FORCE_EVAL ( QS ) energy (a.u.):            -1101.031006970696130

 
 MD_ENERGIES| Initialization proceeding
 

 ******************************** GO CP2K GO! **********************************
 INITIAL POTENTIAL ENERGY[hartree]     =                     -0.110103100697E+04
 INITIAL KINETIC ENERGY[hartree]       =                      0.272187778755E+00
 INITIAL TEMPERATURE[K]                =                                 300.000
 INITIAL VOLUME[bohr^3]                =                      0.129095421321E+05
 INITIAL CELL LNTHS[bohr]   =      0.2345868E+02   0.2345868E+02   0.2345868E+02
 INITIAL CELL ANGLS[deg]    =      0.9000000E+02   0.9000000E+02   0.9000000E+02
 ******************************** GO CP2K GO! **********************************

 Number of electrons:                                                        512
 Number of occupied orbitals:                                                256
 Number of molecular orbitals:                                               256

 Number of orbital functions:                                               2560
 Number of independent orbital functions:                                   2560

 Extrapolation method: PS Nth order


 SCF WAVEFUNCTION OPTIMIZATION

  ----------------------------------- OT ---------------------------------------
  Minimizer      : DIIS                : direct inversion
                                         in the iterative subspace
                                         using   7 DIIS vectors
                                         safer DIIS on
  Preconditioner : FULL_KINETIC        : inversion of T + eS
  Precond_solver : DEFAULT
  stepsize       :    0.15000000                  energy_gap     :    0.20000000
  eps_taylor     :   0.10000E-15                  max_taylor     :             4
  ----------------------------------- OT ---------------------------------------

  Step     Update method      Time    Convergence         Total energy    Change
  ------------------------------------------------------------------------------
     1 OT DIIS     0.15E+00    0.7     0.00024949     -1101.0278031976 -1.10E+03
     2 OT DIIS     0.15E+00    0.6     0.00016075     -1101.0327091509 -4.91E-03
     3 OT DIIS     0.15E+00    0.6     0.00009050     -1101.0362863175 -3.58E-03
     4 OT DIIS     0.15E+00    0.6     0.00006199     -1101.0377277258 -1.44E-03
     5 OT DIIS     0.15E+00    0.6     0.00003797     -1101.0386877894 -9.60E-04
     6 OT DIIS     0.15E+00    0.6     0.00002205     -1101.0391017619 -4.14E-04
     7 OT DIIS     0.15E+00    0.6     0.00001260     -1101.0392355450 -1.34E-04
     8 OT DIIS     0.15E+00    0.6     0.00000723     -1101.0392767826 -4.12E-05

  *** SCF run converged in     8 steps ***


  Electronic density on regular grids:       -512.0000014905       -0.0000014905
  Core density on regular grids:              511.9999999975       -0.0000000025
  Total charge density on r-space grids:       -0.0000014931
  Total charge density g-space grids:          -0.0000014931

  Overlap energy of the core charge distribution:               0.00000554074590
  Self energy of the core charge distribution:              -2805.30499493854950
  Core Hamiltonian energy:                                    824.99709670370373
  Hartree energy:                                            1145.47089243718438
  Exchange-correlation energy:                               -266.20227652569474

  Total energy:                                             -1101.03927678261016

 ENERGY| Total FORCE_EVAL ( QS ) energy (a.u.):            -1101.039289563982950


 *******************************************************************************
 ENSEMBLE TYPE                =                                              NVE
 STEP NUMBER                  =                                                1
 TIME [fs]                    =                                         0.500000
 CONSERVED QUANTITY [hartree] =                              -0.110076554067E+04

                                              INSTANTANEOUS             AVERAGES
 CPU TIME [s]                 =                       37.06                37.06
 ENERGY DRIFT PER ATOM [K]    =         -0.110545476451E+02   0.000000000000E+00
 POTENTIAL ENERGY[hartree]    =         -0.110103928956E+04  -0.110103928956E+04
 KINETIC ENERGY [hartree]     =          0.273748891512E+00   0.273748891512E+00
 TEMPERATURE [K]              =                     301.721              301.721
 *******************************************************************************


 Number of electrons:                                                        512
 Number of occupied orbitals:                                                256
 Number of molecular orbitals:                                               256

 Number of orbital functions:                                               2560
 Number of independent orbital functions:                                   2560

 Extrapolation method: PS Nth order


 SCF WAVEFUNCTION OPTIMIZATION

  ----------------------------------- OT ---------------------------------------
  Minimizer      : DIIS                : direct inversion
                                         in the iterative subspace
                                         using   7 DIIS vectors
                                         safer DIIS on
  Preconditioner : FULL_KINETIC        : inversion of T + eS
  Precond_solver : DEFAULT
  stepsize       :    0.15000000                  energy_gap     :    0.20000000
  eps_taylor     :   0.10000E-15                  max_taylor     :             4
  ----------------------------------- OT ---------------------------------------

  Step     Update method      Time    Convergence         Total energy    Change
  ------------------------------------------------------------------------------
     1 OT DIIS     0.15E+00    0.6     0.00018187     -1101.0453213823 -1.10E+03
     2 OT DIIS     0.15E+00    0.6     0.00012503     -1101.0480054192 -2.68E-03
     3 OT DIIS     0.15E+00    0.6     0.00007517     -1101.0503828145 -2.38E-03
     4 OT DIIS     0.15E+00    0.6     0.00005150     -1101.0514777106 -1.09E-03
     5 OT DIIS     0.15E+00    0.6     0.00002882     -1101.0522243706 -7.47E-04
     6 OT DIIS     0.15E+00    0.6     0.00001712     -1101.0524515284 -2.27E-04
     7 OT DIIS     0.15E+00    0.6     0.00000972     -1101.0525297372 -7.82E-05

  *** SCF run converged in     7 steps ***


  Electronic density on regular grids:       -512.0000014194       -0.0000014194
  Core density on regular grids:              511.9999999954       -0.0000000046
  Total charge density on r-space grids:       -0.0000014240
  Total charge density g-space grids:          -0.0000014240

  Overlap energy of the core charge distribution:               0.00000508717620
  Self energy of the core charge distribution:              -2805.30499493854950
  Core Hamiltonian energy:                                    823.99099498807072
  Hartree energy:                                            1146.19319011609286
  Exchange-correlation energy:                               -265.93172499003003

  Total energy:                                             -1101.05252973723964

 ENERGY| Total FORCE_EVAL ( QS ) energy (a.u.):            -1101.052553905902190


 *******************************************************************************
 ENSEMBLE TYPE                =                                              NVE
 STEP NUMBER                  =                                                2
 TIME [fs]                    =                                         1.000000
 CONSERVED QUANTITY [hartree] =                              -0.110076574941E+04

                                              INSTANTANEOUS             AVERAGES
 CPU TIME [s]                 =                        4.98                21.02
 ENERGY DRIFT PER ATOM [K]    =         -0.113978548922E+02  -0.569892744609E+01
 POTENTIAL ENERGY[hartree]    =         -0.110105255391E+04  -0.110104592173E+04
 KINETIC ENERGY [hartree]     =          0.286804492825E+00   0.280276692169E+00
 TEMPERATURE [K]              =                     316.110              308.915
 *******************************************************************************


 Number of electrons:                                                        512
 Number of occupied orbitals:                                                256
 Number of molecular orbitals:                                               256

 Number of orbital functions:                                               2560
 Number of independent orbital functions:                                   2560

 Extrapolation method: PS Nth order


 SCF WAVEFUNCTION OPTIMIZATION

  ----------------------------------- OT ---------------------------------------
  Minimizer      : DIIS                : direct inversion
                                         in the iterative subspace
                                         using   7 DIIS vectors
                                         safer DIIS on
  Preconditioner : FULL_KINETIC        : inversion of T + eS
  Precond_solver : DEFAULT
  stepsize       :    0.15000000                  energy_gap     :    0.20000000
  eps_taylor     :   0.10000E-15                  max_taylor     :             4
  ----------------------------------- OT ---------------------------------------

  Step     Update method      Time    Convergence         Total energy    Change
  ------------------------------------------------------------------------------
     1 OT DIIS     0.15E+00    0.6     0.00016599     -1101.0673401810 -1.10E+03
     2 OT DIIS     0.15E+00    0.6     0.00011755     -1101.0696106475 -2.27E-03
     3 OT DIIS     0.15E+00    0.6     0.00007010     -1101.0718403938 -2.23E-03
     4 OT DIIS     0.15E+00    0.6     0.00004686     -1101.0728159792 -9.76E-04
     5 OT DIIS     0.15E+00    0.6     0.00002506     -1101.0734352745 -6.19E-04
     6 OT DIIS     0.15E+00    0.6     0.00001526     -1101.0735929641 -1.58E-04
     7 OT DIIS     0.15E+00    0.6     0.00000857     -1101.0736544803 -6.15E-05

  *** SCF run converged in     7 steps ***


  Electronic density on regular grids:       -512.0000013333       -0.0000013333
  Core density on regular grids:              511.9999999979       -0.0000000021
  Total charge density on r-space grids:       -0.0000013354
  Total charge density g-space grids:          -0.0000013354

  Overlap energy of the core charge distribution:               0.00000421676059
  Self energy of the core charge distribution:              -2805.30499493854950
  Core Hamiltonian energy:                                    822.43891721585385
  Hartree energy:                                            1147.30180931049836
  Exchange-correlation energy:                               -265.50939028488204

  Total energy:                                             -1101.07365448031851

 ENERGY| Total FORCE_EVAL ( QS ) energy (a.u.):            -1101.073673404310740


 *******************************************************************************
 ENSEMBLE TYPE                =                                              NVE
 STEP NUMBER                  =                                                3
 TIME [fs]                    =                                         1.500000
 CONSERVED QUANTITY [hartree] =                              -0.110076623801E+04

                                              INSTANTANEOUS             AVERAGES
 CPU TIME [s]                 =                        5.09                15.71
 ENERGY DRIFT PER ATOM [K]    =         -0.122014234966E+02  -0.786642612959E+01
 POTENTIAL ENERGY[hartree]    =         -0.110107367340E+04  -0.110105517229E+04
 KINETIC ENERGY [hartree]     =          0.307435398583E+00   0.289329594307E+00
 TEMPERATURE [K]              =                     338.849              318.893
 *******************************************************************************


 Number of electrons:                                                        512
 Number of occupied orbitals:                                                256
 Number of molecular orbitals:                                               256

 Number of orbital functions:                                               2560
 Number of independent orbital functions:                                   2560

 Extrapolation method: PS Nth order


 SCF WAVEFUNCTION OPTIMIZATION

  ----------------------------------- OT ---------------------------------------
  Minimizer      : DIIS                : direct inversion
                                         in the iterative subspace
                                         using   7 DIIS vectors
                                         safer DIIS on
  Preconditioner : FULL_KINETIC        : inversion of T + eS
  Precond_solver : DEFAULT
  stepsize       :    0.15000000                  energy_gap     :    0.20000000
  eps_taylor     :   0.10000E-15                  max_taylor     :             4
  ----------------------------------- OT ---------------------------------------

  Step     Update method      Time    Convergence         Total energy    Change
  ------------------------------------------------------------------------------
     1 OT DIIS     0.15E+00    0.6     0.00016900     -1101.0882815793 -1.10E+03
     2 OT DIIS     0.15E+00    0.6     0.00012004     -1101.0906392120 -2.36E-03
     3 OT DIIS     0.15E+00    0.6     0.00006991     -1101.0929761671 -2.34E-03
     4 OT DIIS     0.15E+00    0.6     0.00004370     -1101.0939498196 -9.74E-04
     5 OT DIIS     0.15E+00    0.6     0.00002172     -1101.0944515377 -5.02E-04
     6 OT DIIS     0.15E+00    0.6     0.00001364     -1101.0945537971 -1.02E-04
     7 OT DIIS     0.15E+00    0.6     0.00000750     -1101.0946004838 -4.67E-05

  *** SCF run converged in     7 steps ***


  Electronic density on regular grids:       -512.0000012177       -0.0000012177
  Core density on regular grids:              512.0000000002        0.0000000002
  Total charge density on r-space grids:       -0.0000012176
  Total charge density g-space grids:          -0.0000012176

  Overlap energy of the core charge distribution:               0.00000308048338
  Self energy of the core charge distribution:              -2805.30499493854950
  Core Hamiltonian energy:                                    820.48664268916605
  Hartree energy:                                            1148.70443612234840
  Exchange-correlation energy:                               -264.98068743720813

  Total energy:                                             -1101.09460048375968

 ENERGY| Total FORCE_EVAL ( QS ) energy (a.u.):            -1101.094614859844570


 *******************************************************************************
 ENSEMBLE TYPE                =                                              NVE
 STEP NUMBER                  =                                                4
 TIME [fs]                    =                                         2.000000
 CONSERVED QUANTITY [hartree] =                              -0.110076681835E+04

                                              INSTANTANEOUS             AVERAGES
 CPU TIME [s]                 =                        5.15                13.07
 ENERGY DRIFT PER ATOM [K]    =         -0.131558941941E+02  -0.918879314571E+01
 POTENTIAL ENERGY[hartree]    =         -0.110109461486E+04  -0.110106503293E+04
 KINETIC ENERGY [hartree]     =          0.327796508687E+00   0.298946322902E+00
 TEMPERATURE [K]              =                     361.291              329.493
 *******************************************************************************


 Number of electrons:                                                        512
 Number of occupied orbitals:                                                256
 Number of molecular orbitals:                                               256

 Number of orbital functions:                                               2560
 Number of independent orbital functions:                                   2560

 Extrapolation method: PS Nth order


 SCF WAVEFUNCTION OPTIMIZATION

  ----------------------------------- OT ---------------------------------------
  Minimizer      : DIIS                : direct inversion
                                         in the iterative subspace
                                         using   7 DIIS vectors
                                         safer DIIS on
  Preconditioner : FULL_KINETIC        : inversion of T + eS
  Precond_solver : DEFAULT
  stepsize       :    0.15000000                  energy_gap     :    0.20000000
  eps_taylor     :   0.10000E-15                  max_taylor     :             4
  ----------------------------------- OT ---------------------------------------

  Step     Update method      Time    Convergence         Total energy    Change
  ------------------------------------------------------------------------------
     1 OT DIIS     0.15E+00    0.6     0.00006426     -1101.1044110237 -1.10E+03
     2 OT DIIS     0.15E+00    0.6     0.00005315     -1101.1047787985 -3.68E-04
     3 OT DIIS     0.15E+00    0.6     0.00003232     -1101.1054483798 -6.70E-04
     4 OT DIIS     0.15E+00    0.6     0.00002194     -1101.1057147872 -2.66E-04
     5 OT DIIS     0.15E+00    0.6     0.00001212     -1101.1058730945 -1.58E-04
     6 OT DIIS     0.15E+00    0.6     0.00000783     -1101.1059135973 -4.05E-05

  *** SCF run converged in     6 steps ***


  Electronic density on regular grids:       -512.0000010688       -0.0000010688
  Core density on regular grids:              511.9999999989       -0.0000000011
  Total charge density on r-space grids:       -0.0000010699
  Total charge density g-space grids:          -0.0000010699

  Overlap energy of the core charge distribution:               0.00000200945111
  Self energy of the core charge distribution:              -2805.30499493854950
  Core Hamiltonian energy:                                    818.39013739176062
  Hartree energy:                                            1150.21806252089527
  Exchange-correlation energy:                               -264.40912058082210

  Total energy:                                             -1101.10591359726459

 ENERGY| Total FORCE_EVAL ( QS ) energy (a.u.):            -1101.105932128856010


 *******************************************************************************
 ENSEMBLE TYPE                =                                              NVE
 STEP NUMBER                  =                                                5
 TIME [fs]                    =                                         2.500000
 CONSERVED QUANTITY [hartree] =                              -0.110076715532E+04

                                              INSTANTANEOUS             AVERAGES
 CPU TIME [s]                 =                        4.41                11.34
 ENERGY DRIFT PER ATOM [K]    =         -0.137100851199E+02  -0.100930515405E+02
 POTENTIAL ENERGY[hartree]    =         -0.110110593213E+04  -0.110107321277E+04
 KINETIC ENERGY [hartree]     =          0.338776813796E+00   0.306912421081E+00
 TEMPERATURE [K]              =                     373.393              338.273
 *******************************************************************************


 Number of electrons:                                                        512
 Number of occupied orbitals:                                                256
 Number of molecular orbitals:                                               256

 Number of orbital functions:                                               2560
 Number of independent orbital functions:                                   2560

 Extrapolation method: PS Nth order


 SCF WAVEFUNCTION OPTIMIZATION

  ----------------------------------- OT ---------------------------------------
  Minimizer      : DIIS                : direct inversion
                                         in the iterative subspace
                                         using   7 DIIS vectors
                                         safer DIIS on
  Preconditioner : FULL_KINETIC        : inversion of T + eS
  Precond_solver : DEFAULT
  stepsize       :    0.15000000                  energy_gap     :    0.20000000
  eps_taylor     :   0.10000E-15                  max_taylor     :             4
  ----------------------------------- OT ---------------------------------------

  Step     Update method      Time    Convergence         Total energy    Change
  ------------------------------------------------------------------------------
     1 OT DIIS     0.15E+00    0.6     0.00004706     -1101.1011339815 -1.10E+03
     2 OT DIIS     0.15E+00    0.6     0.00003814     -1101.1013293809 -1.95E-04
     3 OT DIIS     0.15E+00    0.6     0.00002079     -1101.1016568934 -3.28E-04
     4 OT DIIS     0.15E+00    0.6     0.00001223     -1101.1017643462 -1.07E-04
     5 OT DIIS     0.15E+00    0.6     0.00000730     -1101.1018023382 -3.80E-05

  *** SCF run converged in     5 steps ***


  Electronic density on regular grids:       -512.0000009008       -0.0000009008
  Core density on regular grids:              511.9999999941       -0.0000000059
  Total charge density on r-space grids:       -0.0000009067
  Total charge density g-space grids:          -0.0000009067

  Overlap energy of the core charge distribution:               0.00000123724779
  Self energy of the core charge distribution:              -2805.30499493854950
  Core Hamiltonian energy:                                    816.35636953450432
  Hartree energy:                                            1151.70037309174813
  Exchange-correlation energy:                               -263.85355126311873

  Total energy:                                             -1101.10180233816800

 ENERGY| Total FORCE_EVAL ( QS ) energy (a.u.):            -1101.101815178020390


 *******************************************************************************
 ENSEMBLE TYPE                =                                              NVE
 STEP NUMBER                  =                                                6
 TIME [fs]                    =                                         3.000000
 CONSERVED QUANTITY [hartree] =                              -0.110076702437E+04

                                              INSTANTANEOUS             AVERAGES
 CPU TIME [s]                 =                        3.87                10.09
 ENERGY DRIFT PER ATOM [K]    =         -0.134947242871E+02  -0.106599969983E+02
 POTENTIAL ENERGY[hartree]    =         -0.110110181518E+04  -0.110107797984E+04
 KINETIC ENERGY [hartree]     =          0.334790808494E+00   0.311558818983E+00
 TEMPERATURE [K]              =                     369.000              343.394
 *******************************************************************************


 Number of electrons:                                                        512
 Number of occupied orbitals:                                                256
 Number of molecular orbitals:                                               256

 Number of orbital functions:                                               2560
 Number of independent orbital functions:                                   2560

 Extrapolation method: PS Nth order


 SCF WAVEFUNCTION OPTIMIZATION

  ----------------------------------- OT ---------------------------------------
  Minimizer      : DIIS                : direct inversion
                                         in the iterative subspace
                                         using   7 DIIS vectors
                                         safer DIIS on
  Preconditioner : FULL_KINETIC        : inversion of T + eS
  Precond_solver : DEFAULT
  stepsize       :    0.15000000                  energy_gap     :    0.20000000
  eps_taylor     :   0.10000E-15                  max_taylor     :             4
  ----------------------------------- OT ---------------------------------------

  Step     Update method      Time    Convergence         Total energy    Change
  ------------------------------------------------------------------------------
     1 OT DIIS     0.15E+00    0.6     0.00004011     -1101.0829342810 -1.10E+03
     2 OT DIIS     0.15E+00    0.6     0.00003295     -1101.0830775657 -1.43E-04
     3 OT DIIS     0.15E+00    0.6     0.00001490     -1101.0833518754 -2.74E-04
     4 OT DIIS     0.15E+00    0.6     0.00000897     -1101.0834071080 -5.52E-05

  *** SCF run converged in     4 steps ***


  Electronic density on regular grids:       -512.0000007415       -0.0000007415
  Core density on regular grids:              511.9999999906       -0.0000000094
  Total charge density on r-space grids:       -0.0000007508
  Total charge density g-space grids:          -0.0000007508

  Overlap energy of the core charge distribution:               0.00000077877949
  Self energy of the core charge distribution:              -2805.30499493854950
  Core Hamiltonian energy:                                    814.58618751204449
  Hartree energy:                                            1153.00177219564398
  Exchange-correlation energy:                               -263.36637265590446

  Total energy:                                             -1101.08340710798620

 ENERGY| Total FORCE_EVAL ( QS ) energy (a.u.):            -1101.083423184812090


 *******************************************************************************
 ENSEMBLE TYPE                =                                              NVE
 STEP NUMBER                  =                                                7
 TIME [fs]                    =                                         3.500000
 CONSERVED QUANTITY [hartree] =                              -0.110076647588E+04

                                              INSTANTANEOUS             AVERAGES
 CPU TIME [s]                 =                        3.29                 9.12
 ENERGY DRIFT PER ATOM [K]    =         -0.125926396584E+02  -0.109360888069E+02
 POTENTIAL ENERGY[hartree]    =         -0.110108342318E+04  -0.110107875746E+04
 KINETIC ENERGY [hartree]     =          0.316947308491E+00   0.312328603198E+00
 TEMPERATURE [K]              =                     349.333              344.242
 *******************************************************************************


 Number of electrons:                                                        512
 Number of occupied orbitals:                                                256
 Number of molecular orbitals:                                               256

 Number of orbital functions:                                               2560
 Number of independent orbital functions:                                   2560

 Extrapolation method: PS Nth order


 SCF WAVEFUNCTION OPTIMIZATION

  ----------------------------------- OT ---------------------------------------
  Minimizer      : DIIS                : direct inversion
                                         in the iterative subspace
                                         using   7 DIIS vectors
                                         safer DIIS on
  Preconditioner : FULL_KINETIC        : inversion of T + eS
  Precond_solver : DEFAULT
  stepsize       :    0.15000000                  energy_gap     :    0.20000000
  eps_taylor     :   0.10000E-15                  max_taylor     :             4
  ----------------------------------- OT ---------------------------------------

  Step     Update method      Time    Convergence         Total energy    Change
  ------------------------------------------------------------------------------
     1 OT DIIS     0.15E+00    0.6     0.00003934     -1101.0575993375 -1.10E+03
     2 OT DIIS     0.15E+00    0.6     0.00003220     -1101.0577372339 -1.38E-04
     3 OT DIIS     0.15E+00    0.6     0.00001302     -1101.0580145435 -2.77E-04
     4 OT DIIS     0.15E+00    0.6     0.00000937     -1101.0580508352 -3.63E-05

  *** SCF run converged in     4 steps ***


  Electronic density on regular grids:       -512.0000006088       -0.0000006088
  Core density on regular grids:              511.9999999927       -0.0000000073
  Total charge density on r-space grids:       -0.0000006162
  Total charge density g-space grids:          -0.0000006162

  Overlap energy of the core charge distribution:               0.00000054143077
  Self energy of the core charge distribution:              -2805.30499493854950
  Core Hamiltonian energy:                                    813.21035139302910
  Hartree energy:                                            1154.02258427292509
  Exchange-correlation energy:                               -262.98599210403631

  Total energy:                                             -1101.05805083520067

 ENERGY| Total FORCE_EVAL ( QS ) energy (a.u.):            -1101.058072647110290


 *******************************************************************************
 ENSEMBLE TYPE                =                                              NVE
 STEP NUMBER                  =                                                8
 TIME [fs]                    =                                         4.000000
 CONSERVED QUANTITY [hartree] =                              -0.110076580471E+04

                                              INSTANTANEOUS             AVERAGES
 CPU TIME [s]                 =                        3.28                 8.39
 ENERGY DRIFT PER ATOM [K]    =         -0.114888012162E+02  -0.110051778580E+02
 POTENTIAL ENERGY[hartree]    =         -0.110105807265E+04  -0.110107617186E+04
 KINETIC ENERGY [hartree]     =          0.292267936072E+00   0.309821019808E+00
 TEMPERATURE [K]              =                     322.132              341.479
 *******************************************************************************


 Number of electrons:                                                        512
 Number of occupied orbitals:                                                256
 Number of molecular orbitals:                                               256

 Number of orbital functions:                                               2560
 Number of independent orbital functions:                                   2560

 Extrapolation method: PS Nth order


 SCF WAVEFUNCTION OPTIMIZATION

  ----------------------------------- OT ---------------------------------------
  Minimizer      : DIIS                : direct inversion
                                         in the iterative subspace
                                         using   7 DIIS vectors
                                         safer DIIS on
  Preconditioner : FULL_KINETIC        : inversion of T + eS
  Precond_solver : DEFAULT
  stepsize       :    0.15000000                  energy_gap     :    0.20000000
  eps_taylor     :   0.10000E-15                  max_taylor     :             4
  ----------------------------------- OT ---------------------------------------

  Step     Update method      Time    Convergence         Total energy    Change
  ------------------------------------------------------------------------------
     1 OT DIIS     0.15E+00    0.6     0.00004063     -1101.0348904328 -1.10E+03
     2 OT DIIS     0.15E+00    0.5     0.00003307     -1101.0350368939 -1.46E-04
     3 OT DIIS     0.15E+00    0.6     0.00001525     -1101.0353096358 -2.73E-04
     4 OT DIIS     0.15E+00    0.6     0.00001093     -1101.0353590214 -4.94E-05
     5 OT DIIS     0.15E+00    0.6     0.00000786     -1101.0353880728 -2.91E-05

  *** SCF run converged in     5 steps ***


  Electronic density on regular grids:       -512.0000004818       -0.0000004818
  Core density on regular grids:              511.9999999968       -0.0000000032
  Total charge density on r-space grids:       -0.0000004851
  Total charge density g-space grids:          -0.0000004851

  Overlap energy of the core charge distribution:               0.00000043858940
  Self energy of the core charge distribution:              -2805.30499493854950
  Core Hamiltonian energy:                                    812.31303126909222
  Hartree energy:                                            1154.69416749634092
  Exchange-correlation energy:                               -262.73759233823438

  Total energy:                                             -1101.03538807276141

 ENERGY| Total FORCE_EVAL ( QS ) energy (a.u.):            -1101.035410333148770


 *******************************************************************************
 ENSEMBLE TYPE                =                                              NVE
 STEP NUMBER                  =                                                9
 TIME [fs]                    =                                         4.500000
 CONSERVED QUANTITY [hartree] =                              -0.110076529419E+04

                                              INSTANTANEOUS             AVERAGES
 CPU TIME [s]                 =                        3.83                 7.89
 ENERGY DRIFT PER ATOM [K]    =         -0.106491651839E+02  -0.109656208943E+02
 POTENTIAL ENERGY[hartree]    =         -0.110103541033E+04  -0.110107164280E+04
 KINETIC ENERGY [hartree]     =          0.270116144786E+00   0.305409367027E+00
 TEMPERATURE [K]              =                     297.717              336.616
 *******************************************************************************


 Number of electrons:                                                        512
 Number of occupied orbitals:                                                256
 Number of molecular orbitals:                                               256

 Number of orbital functions:                                               2560
 Number of independent orbital functions:                                   2560

 Extrapolation method: PS Nth order


 SCF WAVEFUNCTION OPTIMIZATION

  ----------------------------------- OT ---------------------------------------
  Minimizer      : DIIS                : direct inversion
                                         in the iterative subspace
                                         using   7 DIIS vectors
                                         safer DIIS on
  Preconditioner : FULL_KINETIC        : inversion of T + eS
  Precond_solver : DEFAULT
  stepsize       :    0.15000000                  energy_gap     :    0.20000000
  eps_taylor     :   0.10000E-15                  max_taylor     :             4
  ----------------------------------- OT ---------------------------------------

  Step     Update method      Time    Convergence         Total energy    Change
  ------------------------------------------------------------------------------
     1 OT DIIS     0.15E+00    0.6     0.00004272     -1101.0227185823 -1.10E+03
     2 OT DIIS     0.15E+00    0.5     0.00003547     -1101.0228816341 -1.63E-04
     3 OT DIIS     0.15E+00    0.6     0.00001954     -1101.0231905787 -3.09E-04
     4 OT DIIS     0.15E+00    0.6     0.00001351     -1101.0232865832 -9.60E-05
     5 OT DIIS     0.15E+00    0.6     0.00000909     -1101.0233423692 -5.58E-05

  *** SCF run converged in     5 steps ***


  Electronic density on regular grids:       -512.0000003316       -0.0000003316
  Core density on regular grids:              511.9999999981       -0.0000000019
  Total charge density on r-space grids:       -0.0000003335
  Total charge density g-space grids:          -0.0000003335

  Overlap energy of the core charge distribution:               0.00000042270337
  Self energy of the core charge distribution:              -2805.30499493854950
  Core Hamiltonian energy:                                    811.91272338374733
  Hartree energy:                                            1154.99784951704873
  Exchange-correlation energy:                               -262.62892075413635

  Total energy:                                             -1101.02334236918614

 ENERGY| Total FORCE_EVAL ( QS ) energy (a.u.):            -1101.023374986881210


 *******************************************************************************
 ENSEMBLE TYPE                =                                              NVE
 STEP NUMBER                  =                                               10
 TIME [fs]                    =                                         5.000000
 CONSERVED QUANTITY [hartree] =                              -0.110076505584E+04

                                              INSTANTANEOUS             AVERAGES
 CPU TIME [s]                 =                        3.86                 7.48
 ENERGY DRIFT PER ATOM [K]    =         -0.102571582648E+02  -0.108947746313E+02
 POTENTIAL ENERGY[hartree]    =         -0.110102337499E+04  -0.110106681602E+04
 KINETIC ENERGY [hartree]     =          0.258319149916E+00   0.300700345316E+00
 TEMPERATURE [K]              =                     284.714              331.426
 *******************************************************************************


 -------------------------------------------------------------------------------
 -                                                                             -
 -                                DBCSR STATISTICS                             -
 -                                                                             -
 -------------------------------------------------------------------------------
 COUNTER                                    TOTAL       BLAS       SMM       ACC
 flops     9 x    32 x    32            207618048     100.0%      0.0%      0.0%
 flops    22 x    32 x    32            253755392     100.0%      0.0%      0.0%
 flops   128 x    32 x    98          10815537152     100.0%      0.0%      0.0%
 flops  1271 x    32 x    98          15178139648     100.0%      0.0%      0.0%
 flops  1289 x    32 x    98          15393093632     100.0%      0.0%      0.0%
 flops   128 x    32 x   111          24500502528     100.0%      0.0%      0.0%
 flops   128 x    32 x    32          26877100032     100.0%      0.0%      0.0%
 flops  1271 x    32 x   111          34383132672     100.0%      0.0%      0.0%
 flops  1289 x    32 x   111          34870069248     100.0%      0.0%      0.0%
 flops     9 x     9 x    32          44168260608     100.0%      0.0%      0.0%
 flops    22 x     9 x    32          53835724800     100.0%      0.0%      0.0%
 flops     9 x    22 x    32          53885500416     100.0%      0.0%      0.0%
 flops    22 x    22 x    32          67007283200     100.0%      0.0%      0.0%
 flops  1271 x    32 x    32          86294921216     100.0%      0.0%      0.0%
 flops  1289 x    32 x    32          87517036544     100.0%      0.0%      0.0%
 flops   128 x    32 x   120         105948119040     100.0%      0.0%      0.0%
 flops  1271 x    32 x   120         148683816960     100.0%      0.0%      0.0%
 flops  1289 x    32 x   120         150789488640     100.0%      0.0%      0.0%
 flops     9 x    32 x     9         185405884416     100.0%      0.0%      0.0%
 flops    22 x    32 x     9         227871249408     100.0%      0.0%      0.0%
 flops     9 x    32 x    22         227871249408     100.0%      0.0%      0.0%
 flops    22 x    32 x    22         279130931200     100.0%      0.0%      0.0%
 flops inhomo. stacks                           0       0.0%      0.0%      0.0%
 flops total                         1.880888E+12     100.0%      0.0%      0.0%
 flops max/rank                    109.841882E+09     100.0%      0.0%      0.0%
 matmuls inhomo. stacks                         0       0.0%      0.0%      0.0%
 matmuls total                          100300600     100.0%      0.0%      0.0%
 number of processed stacks                929504     100.0%      0.0%      0.0%
 average stack size                                   107.9       0.0       0.0
 marketing flops                     2.107582E+12
 -------------------------------------------------------------------------------
 # multiplications                           2286
 max memory usage/rank             187.179008E+06
 # max total images/rank                       11
 # max 3D layers                                1
 # MPI messages exchanged                25347168
 MPI messages size (bytes):
  total size                       679.315636E+09
  min size                           0.000000E+00
  max size                           1.237440E+06
  average size                      26.800455E+03
 MPI breakdown and total messages size (bytes):
             size <=      128            18836244                        0
       128 < size <=     8192             1774584              14537392128
      8192 < size <=    32768             3761856             112864002048
     32768 < size <=   131072              389004              46352302080
    131072 < size <=  4194304              585480             505542437568
   4194304 < size <= 16777216                   0                        0
  16777216 < size                               0                        0
 -------------------------------------------------------------------------------

 *** WARNING in dbcsr/mm/dbcsr_mm.F:268 :: Using a non-square number of ***
 *** MPI ranks might lead to poor performance.                          ***
 *** Used ranks: 44                                                     ***
 *** Suggested: 49 81                                                   ***

 -------------------------------------------------------------------------------
 
 MEMORY| Estimated peak process memory [MiB]                                 179

 -------------------------------------------------------------------------------
 -                                                                             -
 -                         MESSAGE PASSING PERFORMANCE                         -
 -                                                                             -
 -------------------------------------------------------------------------------

 ROUTINE             CALLS      AVE VOLUME [Bytes]
 MP_Group              158
 MP_Bcast             3656                  63184.
 MP_Allreduce        15254                    270.
 MP_Sync                54
 MP_Alltoall         10509                 275394.
 MP_ISendRecv        20468                  18300.
 MP_Wait            488414
 MP_comm_split          50
 MP_ISend          1206764                  17894.
 MP_IRecv          1201758                  17632.
 MP_Memory          499084
 -------------------------------------------------------------------------------


 -------------------------------------------------------------------------------
 -                                                                             -
 -                           R E F E R E N C E S                               -
 -                                                                             -
 -------------------------------------------------------------------------------
 
 CP2K version 5.1, the CP2K developers group (2017).
 CP2K is freely available from https://www.cp2k.org/ .

 Schuett, Ole; Messmer, Peter; Hutter, Juerg; VandeVondele, Joost. 
 Electronic Structure Calculations on Graphics Processing Units, John Wiley & Sons, Ltd, 173-190 (2016).
 GPU-Accelerated Sparse Matrix-Matrix Multiplication for Linear Scaling Density Functional Theory.
 http://dx.doi.org/10.1002/9781118670712.ch8


 Borstnik, U; VandeVondele, J; Weber, V; Hutter, J. 
 PARALLEL COMPUTING, 40 (5-6), 47-58 (2014).
 Sparse matrix multiplication: The distributed block-compressed sparse
 row library.
 http://dx.doi.org/10.1016/j.parco.2014.03.012


 Hutter, J; Iannuzzi, M; Schiffmann, F; VandeVondele, J. 
 WILEY INTERDISCIPLINARY REVIEWS-COMPUTATIONAL MOLECULAR SCIENCE, 4 (1), 15-25 (2014).
 CP2K: atomistic simulations of condensed matter systems.
 http://dx.doi.org/10.1002/wcms.1159


 Krack, M. 
 THEORETICAL CHEMISTRY ACCOUNTS, 114 (1-3), 145-152 (2005).
 Pseudopotentials for H to Kr optimized for gradient-corrected
 exchange-correlation functionals.
 http://dx.doi.org/10.1007/s00214-005-0655-y


 VandeVondele, J; Krack, M; Mohamed, F; Parrinello, M; Chassaing, T;
 Hutter, J. COMPUTER PHYSICS COMMUNICATIONS, 167 (2), 103-128 (2005).
 QUICKSTEP: Fast and accurate density functional calculations using a
 mixed Gaussian and plane waves approach.
 http://dx.doi.org/10.1016/j.cpc.2004.12.014


 Frigo, M; Johnson, SG. 
 PROCEEDINGS OF THE IEEE, 93 (2), 216-231 (2005).
 The design and implementation of FFTW3.
 http://dx.doi.org/10.1109/JPROC.2004.840301


 VandeVondele, J; Hutter, J. 
 JOURNAL OF CHEMICAL PHYSICS, 118 (10), 4365-4369 (2003).
 An efficient orbital transformation method for electronic structure
 calculations.
 http://dx.doi.org/10.1063/1.1543154


 Hartwigsen, C; Goedecker, S; Hutter, J. 
 PHYSICAL REVIEW B, 58 (7), 3641-3662 (1998).
 Relativistic separable dual-space Gaussian pseudopotentials from H to Rn.
 http://dx.doi.org/10.1103/PhysRevB.58.3641


 Lippert, G; Hutter, J; Parrinello, M. 
 MOLECULAR PHYSICS, 92 (3), 477-487 (1997).
 A hybrid Gaussian and plane wave density functional scheme.
 http://dx.doi.org/10.1080/002689797170220


 Goedecker, S; Teter, M; Hutter, J. 
 PHYSICAL REVIEW B, 54 (3), 1703-1710 (1996).
 Separable dual-space Gaussian pseudopotentials.
 http://dx.doi.org/10.1103/PhysRevB.54.1703


 -------------------------------------------------------------------------------
 -                                                                             -
 -                                T I M I N G                                  -
 -                                                                             -
 -------------------------------------------------------------------------------
 SUBROUTINE                       CALLS  ASD         SELF TIME        TOTAL TIME
                                MAXIMUM       AVERAGE  MAXIMUM  AVERAGE  MAXIMUM
 CP2K                                 1  1.0    0.008    0.010   75.028   75.029
 qs_mol_dyn_low                       1  2.0    0.003    0.004   74.847   74.873
 qs_forces                           11  3.9    0.002    0.002   74.481   74.481
 qs_energies                         11  4.9    0.001    0.001   70.456   70.464
 scf_env_do_scf                      11  5.9    0.001    0.001   65.382   65.384
 scf_env_do_scf_inner_loop          108  6.5    0.005    0.008   60.342   60.343
 velocity_verlet                     10  3.0    0.002    0.002   43.444   43.452
 rebuild_ks_matrix                  119  8.3    0.001    0.001   28.910   29.275
 qs_ks_build_kohn_sham_matrix       119  9.3    0.017    0.020   28.909   29.274
 qs_ks_update_qs_env                119  7.6    0.001    0.002   26.089   26.420
 dbcsr_multiply_generic            2286 12.5    0.160    0.169   23.954   24.423
 sum_up_and_integrate               119 10.3    0.059    0.065   23.471   23.489
 integrate_v_rspace                 119 11.3   17.821   18.817   23.412   23.431
 qs_scf_new_mos                     108  7.5    0.001    0.001   20.196   20.677
 qs_scf_loop_do_ot                  108  8.5    0.001    0.001   20.195   20.676
 ot_scf_mini                        108  9.5    0.005    0.006   18.609   19.046
 multiply_cannon                   2286 13.5    1.267    1.397   17.335   18.835
 qs_rho_update_rho                  119  7.7    0.001    0.001   18.446   18.478
 calculate_rho_elec                 119  8.7   12.714   13.196   18.445   18.477
 mp_waitall_1                    462086 15.6    7.922   12.586    7.922   12.586
 ot_mini                            108 10.5    0.001    0.001   11.052   11.508
 multiply_cannon_metrocomm3       50292 14.5    0.172    0.182    5.652   11.012
 qs_ot_get_derivative               108 11.5    0.001    0.002    7.912    8.353
 multiply_cannon_multrec          50292 14.5    3.089    7.699    3.103    7.713
 rs_pw_transfer                     974 11.9    0.009    0.011    4.937    5.233
 init_scf_loop                       11  6.9    0.000    0.000    5.020    5.021
 make_m2s                          4572 13.5    0.159    0.164    4.466    4.668
 potential_pw2rs                    119 12.3    0.011    0.014    3.898    3.913
 density_rs2pw                      119  9.7    0.008    0.009    3.582    3.911
 multiply_cannon_metrocomm2      528066 14.5    1.582    1.682    3.048    3.814
 pw_transfer                       1439 11.6    0.106    0.127    3.546    3.623
 qs_ot_get_p                        119 10.4    0.001    0.002    3.059    3.571
 init_scf_run                        11  5.9    0.000    0.001    3.534    3.537
 scf_env_initial_rho_setup           11  6.9    0.000    0.001    3.534    3.536
 make_images                       4572 14.5    0.231    0.248    3.293    3.516
 fft_wrap_pw1pw2                   1201 12.6    0.008    0.010    3.364    3.430
 apply_preconditioner_dbcsr         119 12.6    0.000    0.000    2.956    3.167
 apply_single                       119 13.6    0.001    0.001    2.956    3.166
 wfi_extrapolate                     11  7.9    0.001    0.001    3.128    3.128
 ot_diis_step                       108 11.5    0.008    0.009    3.082    3.083
 qs_ot_get_derivative_diag           49 12.0    0.002    0.002    2.848    3.068
 multiply_cannon_metrocomm1       50292 14.5    0.216    0.241    1.693    3.059
 fft_wrap_pw1pw2_140                487 13.2    0.359    0.382    2.921    3.004
 qs_ks_update_qs_env_forces          11  4.9    0.000    0.000    2.969    3.003
 rs_distribute_matrix               249 10.9    0.511    0.692    2.307    2.933
 mp_sum_l                          4051 13.7    1.341    2.872    1.341    2.872
 qs_ot_get_derivative_taylor         59 13.0    0.002    0.002    2.590    2.809
 fft3d_ps                          1201 14.6    1.636    1.776    2.529    2.613
 mp_alltoall_d11v                  2141 13.8    1.652    2.391    1.652    2.391
 rs_grid_zero                       736 11.5    2.337    2.375    2.337    2.375
 mp_irecv_dv                     608639 15.4    0.923    2.200    0.923    2.200
 multiply_cannon_metrocomm4       48006 14.5    0.170    0.177    0.901    2.195
 rs_pw_transfer_PW2RS_140           130 13.9    0.861    0.912    2.048    2.094
 calculate_dm_sparse                119  9.5    0.001    0.001    1.778    1.928
 prepare_preconditioner              11  7.9    0.000    0.000    1.841    1.897
 make_preconditioner                 11  8.9    0.000    0.000    1.841    1.897
 make_full_inverse_cholesky          11  9.9    0.000    0.000    1.694    1.784
 mp_waitany                       26328 13.8    1.400    1.733    1.400    1.733
 rs_pw_transfer_RS2PW_140           130 11.5    0.440    0.480    1.304    1.629
 mp_isend_dv                     613753 15.4    0.750    1.385    0.750    1.385
 qs_ot_get_orbitals                 108 10.5    0.001    0.001    1.360    1.383
 cp_dbcsr_sm_fm_multiply             37  9.5    0.001    0.002    1.370    1.375
 dbcsr_create_new                 91517 15.4    0.529    0.554    1.256    1.312
 mp_sum_d                          4133 11.9    0.619    1.290    0.619    1.290
 qs_ot_p2m_diag                      50 11.0    0.007    0.017    1.237    1.264
 qs_energies_init_hamiltonians       11  5.9    0.000    0.000    1.238    1.238
 cp_dbcsr_sm_fm_multiply_core        37 10.5    0.000    0.000    1.145    1.232
 dbcsr_make_images_dense           3978 14.8    0.139    0.151    0.901    1.126
 make_images_sizes                 4572 15.5    0.007    0.007    0.767    1.116
 mp_alltoall_i44                   4572 16.5    0.760    1.110    0.760    1.110
 make_images_data                  4572 15.5    0.066    0.079    0.920    1.080
 build_core_hamiltonian_matrix_      11  4.9    0.000    0.001    0.912    1.007
 hybrid_alltoall_any               4725 16.4    0.091    0.242    0.784    0.929
 cp_fm_cholesky_invert               11 10.9    0.918    0.923    0.918    0.923
 dbcsr_trace_a_b_d                 1205 11.9    0.156    0.190    0.535    0.874
 mp_alltoall_z22v                  1201 16.6    0.610    0.866    0.610    0.866
 dbcsr_finalize                    5856 13.6    0.031    0.033    0.691    0.855
 dbcsr_make_dense_low             25727 15.7    0.152    0.162    0.527    0.809
 dbcsr_merge_all                   4927 14.8    0.200    0.247    0.634    0.797
 rs_pw_transfer_PW2RS_50            119 14.3    0.231    0.255    0.760    0.794
 qs_env_update_s_mstruct             11  6.9    0.000    0.000    0.737    0.785
 make_images_pack                  4572 15.5    0.536    0.764    0.552    0.782
 cp_dbcsr_syevd                      50 12.0    0.005    0.005    0.762    0.763
 cp_fm_syevd                         50 13.0    0.589    0.717    0.720    0.721
 cp_fm_syevd_base                    50 14.0    0.126    0.694    0.126    0.694
 setup_buffer_matrices             4572 14.5    0.098    0.102    0.664    0.692
 mp_alltoall_i22                    627 13.8    0.325    0.633    0.325    0.633
 copy_dbcsr_to_fm                   153 11.3    0.003    0.004    0.430    0.593
 dbcsr_complete_redistribute        329 12.2    0.130    0.179    0.466    0.566
 yz_to_x                            487 15.3    0.111    0.136    0.403    0.552
 x_to_yz                            476 15.9    0.126    0.138    0.439    0.523
 make_dense_data                  25727 16.7    0.229    0.443    0.260    0.521
 mp_allgather_i34                  2286 14.5    0.306    0.513    0.306    0.513
 build_core_ppl_forces               11  5.9    0.445    0.507    0.445    0.507
 make_basis_sm                       11  9.8    0.000    0.000    0.493    0.497
 dbcsr_make_index_exist           91517 16.4    0.359    0.379    0.464    0.493
 build_core_hamiltonian_matrix       11  6.9    0.001    0.001    0.439    0.489
 cp_fm_cholesky_decompose            22 10.9    0.459    0.477    0.459    0.477
 ot_scf_init                         11  7.9    0.001    0.002    0.465    0.477
 qs_create_task_list                 11  7.9    0.000    0.000    0.471    0.476
 generate_qs_task_list               11  8.9    0.214    0.248    0.471    0.475
 buffer_matrices_ensure_size       4572 14.5    0.326    0.385    0.407    0.463
 qs_vxc_create                      119 10.3    0.003    0.004    0.307    0.444
 xc_vxc_pw_create                   119 11.3    0.027    0.029    0.304    0.441
 rs_pw_transfer_RS2PW_50            119 11.7    0.219    0.238    0.371    0.441
 reorthogonalize_vectors             10  9.0    0.000    0.000    0.430    0.433
 mp_sum_dm                          438  4.9    0.374    0.433    0.374    0.433
 mp_isend_iv                     596751 15.5    0.380    0.425    0.380    0.425
 cp_dbcsr_plus_fm_fm_t_native        22  8.9    0.000    0.001    0.387    0.408
 arnoldi_extremal                   119 11.4    0.001    0.001    0.297    0.391
 arnoldi_normal_ev                  119 12.4    0.002    0.003    0.296    0.390
 dbcsr_special_finalize           27432 15.5    0.068    0.069    0.324    0.376
 copy_fm_to_dbcsr                   176 11.2    0.001    0.001    0.271    0.373
 fft_wrap_pw1pw2_50                 238 14.0    0.036    0.043    0.306    0.369
 md_write_output                     11  3.9    0.007    0.270    0.010    0.363
 dbcsr_data_new                  196126 16.2    0.172    0.186    0.319    0.356
 dbcsr_desymmetrize_deep            153 12.3    0.020    0.037    0.190    0.355
 update_particle_set                 20  4.0    0.000    0.000    0.333    0.341
 qs_ot_p2m_taylor                    69 11.7    0.001    0.001    0.316    0.331
 pw_copy                            952 12.7    0.301    0.322    0.301    0.322
 pw_poisson_solve                   119 10.3    0.211    0.214    0.316    0.316
 calculate_rho_core                  11  7.9    0.009    0.011    0.260    0.312
 mp_allocate_d                   139291 16.7    0.289    0.310    0.289    0.310
 mp_irecv_iv                     592265 15.5    0.288    0.309    0.288    0.309
 dbcsr_destroy                    90428 14.4    0.151    0.159    0.287    0.309
 tree_to_linear_d                  1073 14.6    0.204    0.306    0.204    0.306
 dbcsr_copy                        2232 11.8    0.017    0.020    0.266    0.303
 md_output                           10  3.0    0.000    0.000    0.009    0.295
 dbcsr_matrix_vector_mult          1669 14.0    0.014    0.016    0.200    0.292
 distribute_tasks                    11  9.9    0.026    0.029    0.257    0.285
 dbcsr_data_copyall               12601  9.7    0.243    0.285    0.243    0.285
 qs_energies_compute_matrix_w        11  5.9    0.000    0.000    0.274    0.283
 calculate_w_matrix_ot               11  6.9    0.001    0.001    0.274    0.283
 pw_gather_p                        606 14.1    0.235    0.262    0.235    0.262
 transfer_dbcsr_to_fm                11 10.9    0.000    0.000    0.207    0.260
 build_core_ppnl_forces              11  5.9    0.225    0.242    0.225    0.242
 xc_rho_set_and_dset_create         119 12.3    0.004    0.005    0.205    0.238
 dbcsr_data_release              351881 16.4    0.172    0.192    0.214    0.236
 build_core_ppl                      11  7.9    0.203    0.229    0.203    0.229
 build_overlap_matrix                22  6.9    0.112    0.126    0.200    0.220
 calculate_ecore_overlap             22  5.9    0.000    0.000    0.106    0.215
 cp_gemm                             81  9.0    0.000    0.001    0.206    0.214
 cp_gemm_fm_gemm                     81 10.0    0.000    0.000    0.206    0.214
 cp_fm_gemm                          81 11.0    0.206    0.214    0.206    0.214
 dbcsr_data_copy_aa2               2836 14.8    0.156    0.207    0.156    0.207
 rs_pw_transfer_PW2RS_20            119 14.3    0.117    0.126    0.185    0.204
 load_balance_distributed            22 10.9    0.000    0.000    0.180    0.201
 dbcsr_new_transposed               954 13.3    0.011    0.015    0.115    0.201
 dbcsr_make_dense                  1859 13.9    0.012    0.013    0.113    0.200
 calculate_first_density_matrix       1  7.0    0.000    0.000    0.194    0.196
 pw_scatter_p                       595 15.2    0.186    0.193    0.186    0.193
 transfer_fm_to_dbcsr                11  9.9    0.000    0.000    0.142    0.193
 quick_finalize                   23381 16.8    0.067    0.073    0.170    0.193
 integrate_v_core_rspace             11  7.9    0.009    0.011    0.183    0.189
 dbcsr_col_vec_to_rep_row          1669 15.0    0.008    0.009    0.097    0.186
 arnoldi_init                       119 13.4    0.002    0.002    0.085    0.179
 cp_fm_upper_to_full                 22 12.4    0.128    0.177    0.128    0.177
 compute_load_list                   44 11.9    0.124    0.149    0.164    0.176
 rs_pw_transfer_RS2PW_20            119 11.7    0.086    0.096    0.159    0.173
 dbcsr_redistribute                 145 14.7    0.005    0.009    0.084    0.172
 build_subspace                     119 13.4    0.009    0.010    0.171    0.172
 xc_functional_eval                 119 13.3    0.150    0.170    0.150    0.170
 build_kinetic_matrix                22  6.9    0.147    0.165    0.152    0.170
 mp_bcast_dv                       1719 16.0    0.075    0.168    0.075    0.168
 dbcsr_add_d                       1881 12.8    0.003    0.003    0.101    0.168
 dbcsr_add_anytype                 1881 13.8    0.048    0.098    0.098    0.165
 evaluate_core_matrix_traces        119  8.3    0.001    0.001    0.146    0.149
 calculate_ptrace_kp                238  9.3    0.000    0.001    0.145    0.148
 dbcsr_make_undense                1859 13.9    0.049    0.101    0.083    0.143
 mp_allocate_i                   111869 17.0    0.139    0.143    0.139    0.143
 mp_bcast_b                        1737 13.6    0.052    0.142    0.052    0.142
 external_control                   118  7.2    0.000    0.004    0.037    0.125
 fft_wrap_pw1pw2_20                 238 14.0    0.008    0.010    0.087    0.117
 setup_rec_index_2d                4572 14.5    0.105    0.114    0.105    0.114
 dbcsr_switch_data_area           52630 17.0    0.050    0.052    0.104    0.109
 get_current_loads                  132 11.9    0.018    0.021    0.069    0.108
 mp_sum_iv                          362 11.6    0.048    0.108    0.048    0.108
 mp_irecv_dm3                      4416 13.9    0.040    0.106    0.040    0.106
 build_core_ppnl                     11  7.9    0.088    0.097    0.088    0.097
 pw_axpy                            595 10.6    0.094    0.097    0.094    0.097
 write_trajectory                    44  4.9    0.003    0.091    0.003    0.093
 mp_alltoall_l                      143 12.8    0.050    0.093    0.050    0.093
 dbcsr_iterator_start             43402 16.0    0.049    0.069    0.063    0.091
 create_qs_kind_set                   1  2.0    0.000    0.000    0.091    0.091
 read_qs_kind                         2  3.0    0.016    0.021    0.091    0.091
 mp_deallocate_d                 139291 16.5    0.085    0.090    0.085    0.090
 overlap_ab                       52852  7.9    0.080    0.090    0.080    0.090
 merge_index                       4927 15.8    0.061    0.085    0.061    0.085
 mp_deallocate_i                 111869 16.7    0.074    0.084    0.074    0.084
 dbcsr_merge_single_wm             4697 14.5    0.027    0.033    0.054    0.081
 dbcsr_mm_multrec_init             2286 14.5    0.005    0.006    0.076    0.079
 parser_read_line                  2733  4.0    0.001    0.001    0.075    0.075
 dbcsr_mm_csr_init                 2286 15.5    0.051    0.054    0.071    0.074
 parser_read_line_low                 5  5.0    0.004    0.058    0.074    0.074
 broadcast_input_information          5  6.0    0.000    0.000    0.070    0.071
 dbcsr_work_create                32972 15.2    0.049    0.051    0.066    0.069
 dbcsr_make_dists_dense            1989 13.8    0.048    0.053    0.063    0.069
 rs_pw_transfer_PW2RS_10            119 14.3    0.027    0.029    0.053    0.066
 dbcsr_iterator_stop              43402 16.0    0.035    0.051    0.045    0.065
 dbcsr_make_untransposed_blocks    2729 13.4    0.045    0.051    0.058    0.065
 dbcsr_sort_indices               23682 16.4    0.045    0.063    0.045    0.063
 mp_bcast_i                         105  3.0    0.060    0.063    0.060    0.063
 build_qs_neighbor_lists             11  6.9    0.001    0.001    0.056    0.059
 pw_zero                            119 10.7    0.056    0.058    0.056    0.058
 dbcsr_add_wm_from_matrix           443 12.9    0.001    0.002    0.046    0.056
 dbcsr_work_destroy_all           32972 16.2    0.039    0.042    0.051    0.054
 rs_pw_transfer_RS2PW_10            119 11.7    0.028    0.030    0.048    0.054
 dbcsr_fill_wm_from_matrix          443 13.9    0.011    0.013    0.044    0.053
 mp_isendrecv_dv                  20468 14.0    0.035    0.052    0.035    0.052
 dbcsr_set                         4172 14.9    0.005    0.005    0.041    0.052
 mp_sum_dv                         6497 15.2    0.044    0.051    0.044    0.051
 qs_init_subsys                       1  2.0    0.001    0.001    0.048    0.048
 cp_fm_triangular_multiply           11 10.8    0.043    0.048    0.043    0.048
 dbcsr_zero                        4270 15.8    0.036    0.047    0.036    0.047
 fft_wrap_pw1pw2_10                 238 14.0    0.003    0.004    0.042    0.047
 qs_env_setup                         1  3.0    0.000    0.000    0.039    0.039
 cp_dbcsr_cholesky_decompose         11 12.9    0.014    0.015    0.030    0.039
 dbcsr_distribution_new           12473 14.0    0.035    0.039    0.035    0.039
 qs_env_rebuild_pw_env               23  5.3    0.000    0.000    0.039    0.039
 pw_env_rebuild                       1  5.0    0.000    0.000    0.039    0.039
 dbcsr_copy_into_existing            22  7.9    0.008    0.009    0.032    0.036
 mp_alltoall_i11v                  1575 13.9    0.024    0.036    0.024    0.036
 dbcsr_make_index_list            27432 14.5    0.029    0.031    0.029    0.031
 build_neighbor_lists_sac_ppl        11  7.9    0.029    0.030    0.029    0.030
 dbcsr_cholesky_invert               11 12.9    0.016    0.017    0.029    0.029
 dbcsr_finalize_lib                   1  2.0    0.000    0.001    0.028    0.029
 cp_dbcsr_alloc_block_from_nbl       88  7.7    0.010    0.013    0.025    0.028
 mp_max_l                            22  2.0    0.027    0.027    0.027    0.027
 dbcsr_index_prune_deleted        23868 15.8    0.024    0.027    0.024    0.027
 dbcsr_matrix_vector_mult_local    1669 15.0    0.012    0.020    0.017    0.025
 optimize_load_list                  22 11.9    0.000    0.000    0.015    0.025
 dbcsr_reserve_blocks               740 14.3    0.020    0.022    0.022    0.024
 compute_evals                      119 13.4    0.023    0.024    0.023    0.024
 dbcsr_sort_data                   4697 15.5    0.010    0.024    0.010    0.024
 mp_bcast_i3                         22 12.9    0.011    0.023    0.011    0.023
 dbcsr_iterator_seek              43402 17.0    0.014    0.023    0.014    0.023
 pw_grid_setup                        4  6.0    0.000    0.000    0.022    0.022
 pw_grid_setup_internal               4  7.0    0.001    0.001    0.022    0.022
 copy_fm_to_dbcsr_bc                176 12.2    0.008    0.008    0.019    0.021
 create_local_tasks                  11 10.9    0.010    0.011    0.020    0.021
 dbcsr_make_dbcsr_index           34926 17.1    0.017    0.019    0.017    0.019
 create_fast_row_vec_access        1669 15.0    0.002    0.002    0.016    0.018
 cp_fm_create                       325 11.9    0.015    0.018    0.015    0.018
 dbcsr_make_index_local_row       27432 14.5    0.017    0.017    0.017    0.017
 dbcsr_mm_multrec_finalize         2286 15.5    0.012    0.015    0.015    0.017
 mp_cart_create                     158 13.2    0.013    0.017    0.013    0.017
 create_fast_col_vec_access        1669 15.0    0.002    0.002    0.016    0.017
 mp_alltoall_z11v                   238 17.0    0.014    0.016    0.014    0.016
 create_fast_row_vec_access_d      1669 16.0    0.010    0.011    0.014    0.016
 mp_sum_root_iv                      22 12.9    0.003    0.016    0.003    0.016
 fill_hash_tables                  2286 16.5    0.015    0.016    0.015    0.016
 mp_isend_dm3                      4416 13.9    0.014    0.016    0.014    0.016
 Gram_Schmidt_ortho_d              1550 14.0    0.002    0.008    0.008    0.015
 dbcsr_get_local_cols              4145 14.1    0.014    0.015    0.014    0.015
 yz_to_xz                           119 17.3    0.004    0.004    0.012    0.015
 create_fast_col_vec_access_d      1669 16.0    0.009    0.010    0.014    0.015
 copy_dbcsr_to_fm_bc                153 12.3    0.011    0.014    0.012    0.014
 mp_sum_b                          4022 13.8    0.013    0.014    0.013    0.014
 rot_ana                              1  3.0    0.000    0.000    0.014    0.014
 diamat_all                           1  4.0    0.014    0.014    0.014    0.014
 build_neighbor_lists_sap_ppnl       11  7.9    0.013    0.014    0.013    0.014
 dbcsr_mempool_clear                458 13.4    0.005    0.006    0.011    0.014
 pw_grid_sort                         4  8.0    0.007    0.007    0.013    0.013
 compute_max_radius                   1  6.0    0.013    0.013    0.013    0.013
 pw_scale                           119 10.3    0.010    0.012    0.010    0.012
 load_balance_replicated             11 10.9    0.002    0.002    0.011    0.012
 mp_bcast_am                          5  7.0    0.005    0.009    0.010    0.011
 dbcsr_reserve_all_blocks           652 14.1    0.001    0.002    0.008    0.011
 DGKS_ortho_d                      1550 14.0    0.002    0.005    0.006    0.010
 xz_to_yz                           119 14.7    0.003    0.003    0.009    0.009
 dbcsr_scale_by_vector_anytype      208 11.2    0.003    0.008    0.004    0.009
 mp_cart_sub                        309 13.3    0.009    0.009    0.009    0.009
 dbcsr_get_data_size_used          5540 14.8    0.008    0.009    0.008    0.009
 wfs_update                          11  5.9    0.000    0.001    0.008    0.008
 dbcsr_scale_anytype               2109 14.8    0.004    0.007    0.005    0.008
 dbcsr_scale_d                      228 13.5    0.001    0.001    0.005    0.008
 get_fft_scratch                   1202 15.6    0.007    0.008    0.007    0.008
 create_col_vec_from_matrix         238 13.4    0.001    0.001    0.006    0.008
 mp_alltoall_l11v                    11 11.9    0.006    0.008    0.006    0.008
 build_neighbor_lists_sab_all        11  7.9    0.007    0.008    0.007    0.008
 qs_env_rebuild_rho                  11  7.9    0.000    0.000    0.006    0.007
 qs_rho_rebuild                      11  8.9    0.000    0.001    0.006    0.007
 scf_post_calculation_gpw            11  5.9    0.000    0.001    0.003    0.006
 mp_comm_compare                   1204 15.6    0.005    0.006    0.005    0.006
 transpose_index_local              954 14.3    0.003    0.004    0.004    0.006
 write_restart                       10  4.0    0.000    0.006    0.001    0.006
 sort_shells                          4  9.0    0.006    0.006    0.006    0.006
 init_qs_kind_set                     1  3.0    0.000    0.000    0.006    0.006
 init_qs_kind                         2  4.0    0.000    0.000    0.006    0.006
 init_orb_basis_set                   2  5.0    0.000    0.000    0.006    0.006
 init_cphi_and_sphi                   2  6.0    0.005    0.006    0.005    0.006
 mp_bcast_iv                         33  4.4    0.005    0.006    0.005    0.006
 dbcsr_mm_sched_init               2286 16.5    0.004    0.004    0.005    0.006
 cube_transpose_2                   119 14.7    0.001    0.002    0.004    0.005
 mp_environ_l                      1733 14.3    0.004    0.005    0.004    0.005
 cube_transpose_1                   119 17.3    0.002    0.002    0.004    0.005
 calculate_atomic_block_dm            1  8.0    0.001    0.001    0.005    0.005
 make_full_kinetic                   11  9.9    0.000    0.000    0.005    0.005
 build_neighbor_lists_sab_orb        11  7.9    0.005    0.005    0.005    0.005
 mp_rank_compare                   1201 15.6    0.004    0.005    0.004    0.005
 dbcsr_get_local_rows              4145 14.1    0.005    0.005    0.005    0.005
 mp_bcast_av                        561  1.0    0.002    0.002    0.005    0.005
 mp_environ_c                      1202 15.6    0.004    0.004    0.004    0.004
 write_available_results             11  6.9    0.000    0.000    0.002    0.004
 pw_pool_give_back_pw              2867 12.0    0.004    0.004    0.004    0.004
 mp_bcast_im                        120 14.3    0.003    0.004    0.003    0.004
 dbcsr_hadamard_product              98 13.0    0.001    0.003    0.002    0.004
 topology_control                     1  2.0    0.000    0.000    0.003    0.004
 mp_comm_split                       50 14.0    0.002    0.004    0.002    0.004
 cleanup_scf_loop                    11  7.9    0.000    0.001    0.003    0.003
 dbcsr_add_on_diag                  138 12.7    0.001    0.001    0.003    0.003
 pw_pool_create_pw                 2416 11.8    0.003    0.003    0.003    0.003
 create_replicated_col_vec_from     119 13.4    0.000    0.001    0.003    0.003
 create_replicated_row_vec_from     119 13.4    0.000    0.001    0.003    0.003
 mp_maxloc_dv                      1123  1.0    0.003    0.003    0.003    0.003
 dbcsr_mm_sched_finalize           2286 16.5    0.002    0.003    0.002    0.003
 dbcsr_gershgorin_norm               48 11.0    0.000    0.000    0.002    0.003
 pw_grid_remap                        4  8.0    0.000    0.000    0.002    0.003
 write_mo_free_results               11  7.9    0.001    0.002    0.001    0.003
 mp_comm_free                       525 13.0    0.002    0.003    0.002    0.003
 mp_sum_im3                           4  9.0    0.002    0.003    0.002    0.003
 write_mo_set_to_restart            108  7.5    0.002    0.002    0.002    0.002
 qs_scf_loop_print                  108  7.5    0.002    0.002    0.002    0.002
 atom_int_setup                       2  9.0    0.002    0.002    0.002    0.002
 mp_allgather_l                     143 12.8    0.002    0.002    0.002    0.002
 mp_max_i                           364  1.6    0.002    0.002    0.002    0.002
 mp_comm_dup                          8  6.5    0.002    0.002    0.002    0.002
 pw_grid_assign                       4  8.0    0.002    0.002    0.002    0.002
 cp_fm_init_random                    1  8.0    0.002    0.002    0.002    0.002
 cp_fm_to_fm_matrix                  21  7.9    0.002    0.002    0.002    0.002
 pw_grid_distribute                   4  8.0    0.001    0.001    0.002    0.002
 qs_scf_ensure_work_matrices         11  5.9    0.000    0.000    0.001    0.002
 connectivity_control                 1  3.0    0.000    0.000    0.002    0.002
 dbcsr_get_global_row_map          2286 13.5    0.002    0.002    0.002    0.002
 write_particle_coordinates          11  5.9    0.000    0.002    0.000    0.002
 build_neighbor_lists_sab_core       11  7.9    0.002    0.002    0.002    0.002
 scf_c_write_parameters               1  3.0    0.000    0.002    0.000    0.002
 calculate_atom                       2  9.0    0.000    0.000    0.002    0.002
 calculate_atom_restricted            2 10.0    0.001    0.001    0.002    0.002
 topology_generate_bond               1  4.0    0.000    0.000    0.001    0.002
 qs_scf_ensure_mos                   11  5.9    0.000    0.000    0.001    0.002
 dbcsr_get_global_col_map          2286 13.5    0.001    0.002    0.001    0.002
 ot_scf_read_input                   11  7.9    0.000    0.000    0.001    0.002
 init_cube_info                       4  6.0    0.001    0.001    0.001    0.001
 cp_fm_release                      330 11.6    0.001    0.001    0.001    0.001
 release_fast_vec_access           3338 15.0    0.001    0.001    0.001    0.001
 write_mo_dependent_results          11  7.9    0.001    0.001    0.001    0.001
 read_qs_section                      1  3.0    0.001    0.001    0.001    0.001
 ot_readwrite_input                  11  8.9    0.000    0.001    0.000    0.001
 dbcsr_mm_hostdrv_init             2286 17.5    0.001    0.001    0.001    0.001
 write_qs_control                     1  3.0    0.001    0.001    0.001    0.001
 mp_sum_im                           55 11.4    0.001    0.001    0.001    0.001
 qs_efield_local_operator           119 10.3    0.000    0.001    0.000    0.001
 pw_poisson_rebuild                 119 11.3    0.000    0.001    0.000    0.001
 mp_sync                             54 11.9    0.000    0.001    0.000    0.001
 topology_generate_bond_3             1  5.0    0.000    0.000    0.001    0.001
 mp_sum_partial_im                   22 12.9    0.001    0.001    0.001    0.001
 build_fist_neighbor_lists            1  6.0    0.000    0.000    0.001    0.001
 balance_global_list                 22 12.9    0.000    0.001    0.000    0.001
 qs_efield_berry_phase              119 10.3    0.000    0.001    0.000    0.001
 coordinate_control                   1  3.0    0.000    0.000    0.001    0.001
 build_neighbor_lists                 1  7.0    0.001    0.001    0.001    0.001
 coordinate_control_READ_COORDI       1  4.0    0.000    0.000    0.001    0.001
 pw_create                          382 12.9    0.001    0.001    0.001    0.001
 read_atoms_input                     1  5.0    0.001    0.001    0.001    0.001
 restraint_control                   11  3.9    0.000    0.000    0.001    0.001
 fft3d_s                              1  2.0    0.000    0.000    0.001    0.001
 update_input                         1  5.0    0.000    0.000    0.001    0.001
 cp_fm_scale_and_add                 24  9.0    0.001    0.001    0.001    0.001
 topology_connectivity_pack           1  3.0    0.000    0.000    0.000    0.001
 update_subsys                        1  6.0    0.000    0.000    0.001    0.001
 mp_sum_lv                           28  3.7    0.000    0.001    0.000    0.001
 create_destination_list             22 11.9    0.000    0.001    0.000    0.001
 rs_grid_create_descriptor            4  6.0    0.000    0.000    0.000    0.001
 topology_generate_bond_4             1  5.0    0.000    0.000    0.000    0.001
 dump_info_core_hamiltonian          22  6.9    0.000    0.000    0.000    0.000
 qs_scf_post_charges                 11  6.9    0.000    0.000    0.000    0.000
 section_coord_val_set                1  7.0    0.000    0.000    0.000    0.000
 create_local_fixd_list              11  4.9    0.000    0.000    0.000    0.000
 qs_scf_post_ps_implicit             11  8.9    0.000    0.000    0.000    0.000
 mp_min_rv                            1  3.0    0.000    0.000    0.000    0.000
 qs_scf_post_transport               11  8.9    0.000    0.000    0.000    0.000
 qs_scf_print_scf_summary            11  7.9    0.000    0.000    0.000    0.000
 mp_sum_i                            13  5.4    0.000    0.000    0.000    0.000
 fix_atom_control                    11  3.9    0.000    0.000    0.000    0.000
 scf_env_release                      3  4.0    0.000    0.000    0.000    0.000
 qs_ks_did_change                   130  7.7    0.000    0.000    0.000    0.000
 set_mo_occupation_1                120  9.4    0.000    0.000    0.000    0.000
 destroy_preconditioner               1  3.0    0.000    0.000    0.000    0.000
 mp_sum_r                             1  3.0    0.000    0.000    0.000    0.000
 mpools_rebuild_fm_pools              1  4.0    0.000    0.000    0.000    0.000
 mp_sum_lm3                           1  3.0    0.000    0.000    0.000    0.000
 topology_connectivity_pack_2         1  4.0    0.000    0.000    0.000    0.000
 transport_current                   11  9.9    0.000    0.000    0.000    0.000
 temperature_control                 10  3.0    0.000    0.000    0.000    0.000
 calculate_atom_vxc_lda              12 11.0    0.000    0.000    0.000    0.000
 write_structure_data                12  4.8    0.000    0.000    0.000    0.000
 distribute_molecules_2d              1  4.0    0.000    0.000    0.000    0.000
 setup_velocities                     1  3.0    0.000    0.000    0.000    0.000
 atom_ppint_setup                     2  9.0    0.000    0.000    0.000    0.000
 dbcsr_filter_anytype               163  9.7    0.000    0.000    0.000    0.000
 topology_generate_bond_1             1  5.0    0.000    0.000    0.000    0.000
 qs_energies_properties              11  5.9    0.000    0.000    0.000    0.000
 initialize_velocities                1  4.0    0.000    0.000    0.000    0.000
 write_ks_matrix_csr                 11  8.9    0.000    0.000    0.000    0.000
 mp_min_lv                            4  8.0    0.000    0.000    0.000    0.000
 mp_dims_create                       1  9.0    0.000    0.000    0.000    0.000
 atom2d_build                        11  7.9    0.000    0.000    0.000    0.000
 topology_coordinate_pack             1  3.0    0.000    0.000    0.000    0.000
 cp_fm_scale                         10  9.0    0.000    0.000    0.000    0.000
 distribute_molecules_1d              1  3.0    0.000    0.000    0.000    0.000
 resp_fit                            11  7.9    0.000    0.000    0.000    0.000
 write_s_matrix_csr                  11  8.9    0.000    0.000    0.000    0.000
 write_mos_molden                    11  8.9    0.000    0.000    0.000    0.000
 write_dm_binary_restart             11  8.9    0.000    0.000    0.000    0.000
 dbcsr_verify_matrix                 22  9.9    0.000    0.000    0.000    0.000
 calculate_ecore_self                22  5.9    0.000    0.000    0.000    0.000
 section_velocity_val_set             1  7.0    0.000    0.000    0.000    0.000
 create_grid_atom                     2  9.0    0.000    0.000    0.000    0.000
 mp_max_r                             1  3.0    0.000    0.000    0.000    0.000
 qs_scf_post_epr                     11  6.9    0.000    0.000    0.000    0.000
 qs_scf_post_moments                 11  6.9    0.000    0.000    0.000    0.000
 qs_scf_post_efg                     11  6.9    0.000    0.000    0.000    0.000
 comvel_control                      10  3.0    0.000    0.000    0.000    0.000
 qs_scf_post_molopt                  11  6.9    0.000    0.000    0.000    0.000
 remove_restart_info                  1  2.0    0.000    0.000    0.000    0.000
 init_interaction_radii               1  3.0    0.000    0.000    0.000    0.000
 qs_scf_post_xray                    11  6.9    0.000    0.000    0.000    0.000
 mp_alltoall_i                        1 15.0    0.000    0.000    0.000    0.000
 compute_averages                    10  5.0    0.000    0.000    0.000    0.000
 linres_calculation_low              11  6.9    0.000    0.000    0.000    0.000
 connectivity_control_check_ele       1  4.0    0.000    0.000    0.000    0.000
 mp_cart_coords                     220 10.2    0.000    0.000    0.000    0.000
 update_motion                        1  6.0    0.000    0.000    0.000    0.000
 -------------------------------------------------------------------------------

 The number of warnings for this run is : 2
 
 -------------------------------------------------------------------------------
  **** **** ******  **  PROGRAM ENDED AT                 2018-08-09 08:02:15.719
 ***** ** ***  *** **   PROGRAM RAN ON                                  nid00024
 **    ****   ******    PROGRAM RAN BY                                    p02490
 ***** **    ** ** **   PROGRAM PROCESS ID                                 34769
  **** **  *******  **  PROGRAM STOPPED IN /lus/scratch/p02490/rundir/cp2k-bdw_c
                                           ce-8.7_libsci-18.07_cray-fftw-3.3.6
Application 2155461 resources: utime ~3278s, stime ~36s, Rss ~182792, inblocks ~374, outblocks ~456
