 vasp.5.4.4.18Apr17-6-g9f103f2a35 (build Apr 11 2019 14:14:17) gamma-only       
  
 executed on skl_intel-2019_mkl-2 date 2019.04.11  15:15:16
 running on  640 total cores
 distrk:  each k-point on  640 cores,    1 groups
 distr:  one band on NCORES_PER_BAND=  40 cores,   16 groups


--------------------------------------------------------------------------------------------------------


 INCAR:
 POTCAR:    PAW Pd                                
 POTCAR:  PAW O_s                                 
 POTCAR:    PAW Pd                                
   VRHFIN =Pd : s1 d9                                                           
   LEXCH  = 91                                                                  
   EATOM  =   810.7745 eV,   59.5902 Ry                                         
                                                                                
   TITEL  = PAW Pd                                                              
   LULTRA =        F    use ultrasoft PP ?                                      
   IUNSCR =        1    unscreen: 0-lin 1-nonlin 2-no                           
   RPACOR =    2.000    partial core radius                                     
   POMASS =  106.420; ZVAL   =   10.000    mass and valenz                      
   RCORE  =    2.400    outmost cutoff radius                                   
   RWIGS  =    2.710; RWIGS  =    1.434    wigner-seitz radius (au A)           
   ENMAX  =  250.918; ENMIN  =  188.188 eV                                      
   RCLOC  =    1.862    cutoff for local pot                                    
   LCOR   =        T    correct aug charges                                     
   LPAW   =        T    paw PP                                                  
   EAUG   =  416.230                                                            
   DEXC   =    -.044                                                            
   RMAX   =    2.911    core radius for proj-oper                               
   RAUG   =    1.300    factor for augmentation sphere                          
   RDEP   =    2.405    core radius for depl-charge                             
   QCUT   =   -4.294; QGAM   =    8.589    optimization parameters              
                                                                                
   Description                                                                  
     l     E      TYP  RCUT    TYP  RCUT                                        
     2   .000     23  2.400                                                     
     2   .000     23  2.400                                                     
     0   .000     23  2.400                                                     
     0   .000     23  2.400                                                     
     1  -.200     23  2.400                                                     
     1   .000     23  2.400                                                     
     3   .000      7   .000                                                     
  local pseudopotential read in
  partial core-charges read in
  atomic valenz-charges read in
  non local Contribution for L=           2  read in
    real space projection operators read in
  non local Contribution for L=           2  read in
    real space projection operators read in
  non local Contribution for L=           0  read in
    real space projection operators read in
  non local Contribution for L=           0  read in
    real space projection operators read in
  non local Contribution for L=           1  read in
    real space projection operators read in
  non local Contribution for L=           1  read in
    real space projection operators read in
    PAW grid and wavefunctions read in
 
   number of l-projection  operators is LMAX  =           6
   number of lm-projection operators is LMMAX =          18
 
 POTCAR:  PAW O_s                                 
   VRHFIN =O: s2p4                                                              
   LEXCH  = 91                                                                  
   EATOM  =   433.0277 eV,   31.8266 Ry                                         
                                                                                
   TITEL  = PAW O_s                                                             
   LULTRA =        F    use ultrasoft PP ?                                      
   IUNSCR =        0    unscreen: 0-lin 1-nonlin 2-no                           
   RPACOR =     .000    partial core radius                                     
   POMASS =   60.000; ZVAL   =    6.000    mass and valenz                      
   RCORE  =    1.900    outmost cutoff radius                                   
   RWIGS  =    1.700; RWIGS  =     .900    wigner-seitz radius (au A)           
   ENMAX  =  250.000; ENMIN  =  202.667 eV                                      
   RCLOC  =    1.014    cutoff for local pot                                    
   LCOR   =        T    correct aug charges                                     
   LPAW   =        T    paw PP                                                  
   EAUG   =  412.352                                                            
   DEXC   =     .000                                                            
   RMAX   =    2.805    core radius for proj-oper                               
   RDEP   =    2.002    core radius for depl-charge                             
   QCUT   =   -4.457; QGAM   =    8.913    optimization parameters              
                                                                                
   Description                                                                  
     l     E      TYP  RCUT    TYP  RCUT                                        
     0   .000     23  1.500                                                     
     0   .000     23  1.500                                                     
     1   .000     23  1.900                                                     
     1   .000     23  1.900                                                     
     2   .000      7   .000                                                     
  local pseudopotential read in
  atomic valenz-charges read in
  non local Contribution for L=           0  read in
    real space projection operators read in
  non local Contribution for L=           0  read in
    real space projection operators read in
  non local Contribution for L=           1  read in
    real space projection operators read in
  non local Contribution for L=           1  read in
    real space projection operators read in
    PAW grid and wavefunctions read in
 
   number of l-projection  operators is LMAX  =           4
   number of lm-projection operators is LMMAX =           8
 
 Optimization of the real space projectors (new method)

 maximal supplied QI-value         = 15.68
 optimisation between [QCUT,QGAM] = [  8.00, 16.16] = [ 17.92, 73.09] Ry 
 Optimized for a Real-space Cutoff    1.70 Angstroem

   l    n(q)    QCUT    max X(q) W(low)/X(q) W(high)/X(q)  e(spline) 
   2      7     7.999     3.678    0.48E-04    0.12E-03    0.46E-07
   2      7     7.999    27.581    0.45E-03    0.95E-03    0.19E-06
   0      8     7.999    18.529    0.25E-04    0.13E-04    0.59E-08
   0      8     7.999    72.518    0.80E-04    0.44E-04    0.75E-07
   1      8     7.999     7.283    0.85E-04    0.40E-04    0.30E-07
   1      8     7.999     9.762    0.26E-03    0.23E-03    0.96E-07
 Optimization of the real space projectors (new method)

 maximal supplied QI-value         = 19.84
 optimisation between [QCUT,QGAM] = [  7.94, 16.07] = [ 17.64, 72.34] Ry 
 Optimized for a Real-space Cutoff    1.65 Angstroem

   l    n(q)    QCUT    max X(q) W(low)/X(q) W(high)/X(q)  e(spline) 
   0      8     7.937     3.485    0.12E-04    0.35E-04    0.81E-07
   0      8     7.937    30.133    0.36E-03    0.54E-03    0.12E-06
   1      7     7.937     3.755    0.55E-04    0.78E-04    0.14E-06
   1      7     7.937    24.805    0.42E-03    0.58E-04    0.31E-06
  PAW Pd                                :
 energy of atom  1       EATOM= -810.7745
 kinetic energy error for atom=    0.0670 (will be added to EATOM!!)
PAW O_s                                 :
 energy of atom  2       EATOM= -433.0277
 kinetic energy error for atom=    0.1843 (will be added to EATOM!!)
 
 
 POSCAR: Th  Is                                  
  positions in cartesian coordinates
  No initial velocities read in
 exchange correlation table for  LEXCH =        7
   RHO(1)=    0.500       N(1)  =     2000
   RHO(2)=  100.500       N(2)  =     4000
 


--------------------------------------------------------------------------------------------------------


 ion  position               nearest neighbor table
     1  0.042  0.000  0.918-   315 2.80    11 2.80     9 2.80   305 2.80   624 2.80   904 2.80    51 2.80   355 2.80
                              41 2.80
     2  0.292  0.000  0.918-   316 2.80    12 2.80    10 2.80   306 2.80    23 2.80   303 2.80    52 2.80   356 2.80
                              42 2.80
     3  0.242  0.450  0.918-   313 2.80    33 2.80     6 2.80   323 2.80    36 2.80   302 2.80   342 2.80    46 2.80
                              43 2.80
     4  0.492  0.450  0.918-   314 2.80    34 2.80   605 2.80   324 2.80   635 2.80   901 2.80   941 2.80   645 2.80
                              44 2.80
     5  0.067  0.400  0.918-    35 2.80     7 2.80    15 2.80   604 2.80    37 2.80   301 2.80    47 2.80    55 2.80
                              45 2.80
     6  0.317  0.400  0.918-    36 2.80     8 2.80    16 2.80     3 2.80    38 2.80   302 2.80    48 2.80    56 2.80
                              46 2.80
     7  0.142  0.350  0.918-     5 2.80    37 2.80    15 2.80    39 2.80    33 2.80    25 2.80    73 2.80    65 2.80
                              47 2.80
     8  0.392  0.350  0.918-     6 2.80    38 2.80    16 2.80    40 2.80    34 2.80    26 2.80    74 2.80    66 2.80
                              48 2.80
     9  0.017  0.100  0.918-    19 2.80    11 2.80     1 2.80   618 2.80   632 2.80   624 2.80    59 2.80    51 2.80
                             650 2.80
    10  0.267  0.100  0.918-    20 2.80    12 2.80    17 2.80     2 2.80    31 2.80    23 2.80    60 2.80    52 2.80
                              49 2.80
    11  0.092  0.050  0.918-    13 2.80    21 2.80     9 2.80     1 2.80   315 2.80    19 2.80    53 2.80    61 2.80
                              51 2.80
    12  0.342  0.050  0.918-    14 2.80    22 2.80    10 2.80     2 2.80   316 2.80    20 2.80    54 2.80    62 2.80
                              52 2.80
    13  0.167  0.000  0.918-    11 2.80   303 2.80    23 2.80    21 2.80   333 2.80   315 2.80   343 2.80    63 2.80
                              53 2.80
    14  0.417  0.000  0.918-    12 2.80   304 2.80    24 2.80    22 2.80   334 2.80   316 2.80   344 2.80    64 2.80
                              54 2.80
    15  0.117  0.450  0.918-   301 2.80     5 2.80   311 2.80     7 2.80   313 2.80    33 2.80    73 2.80   353 2.80
                              55 2.80
    16  0.367  0.450  0.918-   302 2.80     6 2.80   312 2.80     8 2.80   314 2.80    34 2.80    74 2.80   354 2.80
                              56 2.80
    17  0.242  0.200  0.918-    28 2.80    20 2.80    25 2.80    10 2.80    39 2.80    31 2.80    67 2.80    60 2.80
                              57 2.80
    18  0.492  0.200  0.918-   627 2.80   619 2.80    26 2.80   609 2.80    40 2.80    32 2.80    68 2.80   659 2.80
                              58 2.80
    19  0.067  0.150  0.918-     9 2.80    21 2.80    29 2.80   618 2.80    11 2.80    27 2.80    61 2.80    69 2.80
                              59 2.80
    20  0.317  0.150  0.918-    10 2.80    22 2.80    30 2.80    17 2.80    28 2.80    12 2.80    62 2.80    70 2.80
                              60 2.80
    21  0.142  0.100  0.918-    31 2.80    19 2.80    11 2.80    23 2.80    29 2.80    13 2.80    71 2.80    63 2.80
                              61 2.80
    22  0.392  0.100  0.918-    32 2.80    20 2.80    12 2.80    24 2.80    30 2.80    14 2.80    72 2.80    64 2.80
                              62 2.80
    23  0.217  0.050  0.918-    21 2.80    13 2.80   303 2.80    31 2.80     2 2.80    10 2.80    42 2.80    49 2.80
                              63 2.80
    24  0.467  0.050  0.918-    22 2.80    14 2.80   304 2.80    32 2.80   601 2.80   609 2.80   641 2.80    50 2.80
                              64 2.80
    25  0.217  0.300  0.918-    28 2.80    36 2.80    17 2.80    33 2.80    39 2.80     7 2.80    67 2.80    75 2.80
                              65 2.80
    26  0.467  0.300  0.918-   627 2.80   635 2.80    18 2.80    34 2.80    40 2.80     8 2.80    68 2.80    76 2.80
                              66 2.80
    27  0.042  0.250  0.918-   626 2.80   618 2.80    29 2.80    37 2.80    35 2.80    19 2.80    77 2.80    69 2.80
                             668 2.80
    28  0.292  0.250  0.918-    25 2.80    17 2.80    30 2.80    38 2.80    36 2.80    20 2.80    78 2.80    70 2.80
                              67 2.80
    29  0.117  0.200  0.918-    27 2.80    19 2.80    31 2.80    39 2.80    37 2.80    21 2.80    79 2.80    71 2.80
                              69 2.80
    30  0.367  0.200  0.918-    28 2.80    20 2.80    32 2.80    40 2.80    38 2.80    22 2.80    80 2.80    72 2.80
                              70 2.80
    31  0.192  0.150  0.918-    21 2.80    29 2.80    23 2.80    39 2.80    10 2.80    17 2.80    49 2.80    57 2.80
                              71 2.80
    32  0.442  0.150  0.918-    22 2.80    30 2.80    24 2.80    40 2.80   609 2.80    18 2.80    50 2.80    58 2.80
                              72 2.80
    33  0.192  0.400  0.918-    36 2.80     3 2.80    25 2.80   313 2.80     7 2.80    15 2.80    75 2.80    43 2.80
                              73 2.80
    34  0.442  0.400  0.918-   635 2.80     4 2.80   314 2.80    26 2.80     8 2.80    16 2.80    76 2.80    44 2.80
                              74 2.80
    35  0.017  0.350  0.918-     5 2.80   634 2.80   626 2.80    37 2.80    27 2.80   604 2.80    45 2.80    77 2.80
                             676 2.80
    36  0.267  0.350  0.918-     6 2.80    33 2.80    25 2.80    38 2.80     3 2.80    28 2.80    46 2.80    78 2.80
                              75 2.80
    37  0.092  0.300  0.918-    39 2.80     7 2.80    35 2.80    27 2.80    29 2.80     5 2.80    79 2.80    47 2.80
                              77 2.80
    38  0.342  0.300  0.918-    40 2.80     8 2.80    36 2.80    28 2.80    30 2.80     6 2.80    80 2.80    48 2.80
                              78 2.80
    39  0.167  0.250  0.918-    37 2.80    29 2.80    31 2.80     7 2.80    17 2.80    25 2.80    65 2.80    57 2.80
                              79 2.80
    40  0.417  0.250  0.918-    38 2.80    30 2.80    32 2.80     8 2.80    18 2.80    26 2.80    66 2.80    58 2.80
                              80 2.80
    41  0.000  0.000  0.000-    81 2.76   385 2.76    51 2.80   355 2.80   664 2.80   650 2.80   345 2.80   944 2.80
                             624 2.80   904 2.80     1 2.80   696 2.91
    42  0.250  0.000  0.000-    82 2.76   386 2.76    52 2.80   356 2.80    63 2.80    49 2.80   346 2.80   343 2.80
                              23 2.80   303 2.80     2 2.80    95 2.91
    43  0.200  0.450  0.000-   115 2.75   353 2.80    73 2.80   363 2.80    75 2.80   342 2.80    46 2.80   313 2.80
                              33 2.80     3 2.80   113 2.83   395 2.86
    44  0.450  0.450  0.000-   116 2.75   354 2.80    74 2.80   364 2.80    76 2.80   941 2.80   645 2.80   314 2.80
                              34 2.80     4 2.80   114 2.83   396 2.86
    45  0.025  0.400  0.000-    85 2.75   117 2.78    47 2.80    55 2.80    77 2.80   341 2.80   676 2.80   644 2.80
                              35 2.80   604 2.80     5 2.80   716 2.84
    46  0.275  0.400  0.000-    86 2.75   118 2.78    48 2.80    56 2.80    78 2.80   342 2.80    75 2.80    43 2.80
                              36 2.80     3 2.80     6 2.80   115 2.84
    47  0.100  0.350  0.000-   119 2.75    87 2.77    45 2.80    77 2.80    65 2.80    73 2.80    55 2.80    79 2.80
                               5 2.80    37 2.80     7 2.80   117 2.89
    48  0.350  0.350  0.000-   120 2.75    88 2.77    46 2.80    78 2.80    66 2.80    74 2.80    56 2.80    80 2.80
                               6 2.80    38 2.80     8 2.80   118 2.89
    49  0.225  0.100  0.000-    82 2.75    89 2.78    71 2.80    63 2.80    52 2.80    60 2.80    57 2.80    42 2.80
                              31 2.80    23 2.80    10 2.80   103 2.84
    50  0.475  0.100  0.000-   681 2.75    90 2.78    72 2.80    64 2.80   651 2.80   659 2.80   641 2.80    58 2.80
                              32 2.80    24 2.80   609 2.80   104 2.84
    51  0.050  0.050  0.000-    91 2.77    83 2.77    81 2.78    41 2.80   650 2.80   355 2.80    59 2.80    53 2.80
                              61 2.80     1 2.80     9 2.80    11 2.80
    52  0.300  0.050  0.000-    92 2.77    84 2.77    82 2.78    42 2.80    49 2.80   356 2.80    60 2.80    54 2.80
                              62 2.80     2 2.80    10 2.80    12 2.80
    53  0.125  0.000  0.000-    93 2.73   413 2.73   343 2.80    63 2.80    61 2.80   373 2.80   355 2.80    51 2.80
                              11 2.80   315 2.80    13 2.80    83 2.83
    54  0.375  0.000  0.000-    94 2.73   414 2.73   344 2.80    64 2.80    62 2.80   374 2.80   356 2.80    52 2.80
                              12 2.80   316 2.80    14 2.80    84 2.83
    55  0.075  0.450  0.000-    87 2.77   383 2.77    85 2.78   341 2.80    45 2.80    73 2.80   351 2.80    47 2.80
                             353 2.80   301 2.80     5 2.80    15 2.80
    56  0.325  0.450  0.000-    88 2.77   384 2.77    86 2.78   342 2.80    46 2.80    74 2.80   352 2.80    48 2.80
                             354 2.80   302 2.80     6 2.80    16 2.80
    57  0.200  0.200  0.000-    97 2.74    89 2.74   111 2.75    67 2.80    79 2.80    71 2.80    60 2.80    65 2.80
                              49 2.80    39 2.80    31 2.80    17 2.80
    58  0.450  0.200  0.000-    98 2.74    90 2.74   112 2.75    68 2.80    80 2.80    72 2.80   659 2.80    66 2.80
                              50 2.80    40 2.80    32 2.80    18 2.80
    59  0.025  0.150  0.000-    99 2.75    91 2.77   658 2.80   650 2.80    51 2.80   668 2.80    61 2.80    69 2.80
                               9 2.80   618 2.80    19 2.80   690 2.89
    60  0.275  0.150  0.000-   100 2.75    92 2.77    57 2.80    49 2.80    52 2.80    67 2.80    62 2.80    70 2.80
                              10 2.80    17 2.80    20 2.80    89 2.89
    61  0.100  0.100  0.000-    93 2.74    63 2.80    71 2.80    53 2.80    69 2.80    59 2.80    51 2.80    19 2.80
                              11 2.80    21 2.80    91 2.80   101 2.82
    62  0.350  0.100  0.000-    94 2.74    64 2.80    72 2.80    54 2.80    70 2.80    60 2.80    52 2.80    20 2.80
                              12 2.80    22 2.80    92 2.80   102 2.82
    63  0.175  0.050  0.000-   103 2.75    53 2.80    42 2.80    49 2.80    61 2.80   343 2.80    71 2.80    13 2.80
                              21 2.80    23 2.80    93 2.83    95 2.86
    64  0.425  0.050  0.000-   104 2.75    54 2.80   641 2.80    50 2.80    62 2.80   344 2.80    72 2.80    14 2.80
                              22 2.80    24 2.80    94 2.83    96 2.86
    65  0.175  0.300  0.000-    97 2.73   105 2.79    79 2.80    67 2.80    47 2.80    75 2.80    57 2.80    73 2.80
                              39 2.80     7 2.80    25 2.80   119 2.85
    66  0.425  0.300  0.000-    98 2.73   106 2.79    80 2.80    68 2.80    48 2.80    76 2.80    58 2.80    74 2.80
                              40 2.80     8 2.80    26 2.80   120 2.85
    67  0.250  0.250  0.000-   108 2.62    57 2.80    65 2.80    75 2.80    60 2.80    78 2.80    70 2.80    25 2.80
                              17 2.80    28 2.80    97 2.80   100 2.83
    68  0.500  0.250  0.000-   707 2.62    58 2.80    66 2.80   659 2.80    76 2.80   677 2.80   669 2.80    26 2.80
                              18 2.80   627 2.80    98 2.80   699 2.83
    69  0.075  0.200  0.000-   109 2.73   101 2.79    79 2.80    71 2.80    77 2.80    61 2.80   668 2.80    59 2.80
                              27 2.80    19 2.80    29 2.80    99 2.85
    70  0.325  0.200  0.000-   110 2.73   102 2.79    80 2.80    72 2.80    78 2.80    62 2.80    67 2.80    60 2.80
                              28 2.80    20 2.80    30 2.80   100 2.85
    71  0.150  0.150  0.000-   111 2.73    49 2.80    57 2.80    69 2.80    61 2.80    79 2.80    63 2.80    21 2.80
                              29 2.80    31 2.80   103 2.80   101 2.81
    72  0.400  0.150  0.000-   112 2.73    50 2.80    58 2.80    70 2.80    62 2.80    80 2.80    64 2.80    22 2.80
                              30 2.80    32 2.80   104 2.80   102 2.81
    73  0.150  0.400  0.000-   113 2.74    75 2.80    43 2.80    55 2.80    47 2.80    65 2.80   353 2.80     7 2.80
                              15 2.80    33 2.80    87 2.80   105 2.82
    74  0.400  0.400  0.000-   114 2.74    76 2.80    44 2.80    56 2.80    48 2.80    66 2.80   354 2.80     8 2.80
                              16 2.80    34 2.80    88 2.80   106 2.82
    75  0.225  0.350  0.000-   108 2.73    73 2.80    65 2.80    43 2.80    67 2.80    78 2.80    46 2.80    33 2.80
                              25 2.80    36 2.80   115 2.80   105 2.81
    76  0.475  0.350  0.000-   707 2.73    74 2.80    66 2.80    44 2.80    68 2.80   677 2.80   645 2.80    34 2.80
                              26 2.80   635 2.80   116 2.80   106 2.81
    77  0.050  0.300  0.000-   109 2.74   117 2.74   107 2.75    79 2.80    47 2.80    69 2.80    45 2.80   676 2.80
                             668 2.80    27 2.80    35 2.80    37 2.80
    78  0.300  0.300  0.000-   110 2.74   118 2.74   108 2.75    80 2.80    48 2.80    70 2.80    46 2.80    75 2.80
                              67 2.80    28 2.80    36 2.80    38 2.80
    79  0.125  0.250  0.000-   111 2.62    69 2.80    65 2.80    77 2.80    57 2.80    47 2.80    71 2.80    37 2.80
                              29 2.80    39 2.80   109 2.80   119 2.83
    80  0.375  0.250  0.000-   112 2.62    70 2.80    66 2.80    78 2.80    58 2.80    48 2.80    72 2.80    38 2.80
                              30 2.80    40 2.80   110 2.80   120 2.83
    81  0.007  0.050  0.080-   750 2.68   650 2.75    41 2.76    83 2.76    51 2.78    91 2.78   385 2.80   704 2.80
                             696 2.83   690 2.84   131 3.16
    82  0.257  0.050  0.080-   149 2.68    49 2.75    42 2.76    84 2.76    52 2.78    92 2.78   386 2.80   103 2.80
                              95 2.83    89 2.84   132 3.16
    83  0.081  0.000  0.081-   121 2.66   385 2.76    81 2.76    93 2.77   355 2.77    51 2.77   413 2.77   387 2.80
                              91 2.80    53 2.83
    84  0.331  0.000  0.081-   122 2.66   386 2.76    82 2.76    94 2.77   356 2.77    52 2.77   414 2.77   388 2.80
                              92 2.80    54 2.83
    85  0.033  0.450  0.080-   135 2.68    45 2.75   341 2.76   383 2.76    55 2.78    87 2.78   381 2.80   716 2.80
                             996 2.83   117 2.84   141 3.16
    86  0.283  0.450  0.080-   136 2.68    46 2.75   342 2.76   384 2.76    56 2.78    88 2.78   382 2.80   115 2.80
                             395 2.83   118 2.84   142 3.16
    87  0.107  0.400  0.081-   119 2.72   113 2.75    55 2.77    47 2.77    85 2.78   383 2.80    73 2.80   105 2.85
                             141 2.85   145 2.88   117 2.90
    88  0.357  0.400  0.081-   120 2.72   114 2.75    56 2.77    48 2.77    86 2.78   384 2.80    74 2.80   106 2.85
                             142 2.85   146 2.88   118 2.90
    89  0.229  0.151  0.082-  1205 2.11    57 2.74    97 2.76   103 2.78    49 2.78   111 2.79   100 2.81    82 2.84
                             132 2.87    60 2.89    92 2.90   143 3.23   125 3.32
    90  0.479  0.151  0.082-  1206 2.11    58 2.74    98 2.76   104 2.78    50 2.78   112 2.79   699 2.81   681 2.84
                             731 2.87   659 2.89   691 2.90   144 3.23   126 3.32
    91  0.057  0.100  0.081-    99 2.72    93 2.75    51 2.77    59 2.77    81 2.78    83 2.80    61 2.80   101 2.85
                             131 2.85   133 2.88   690 2.90
    92  0.307  0.100  0.081-   100 2.72    94 2.75    52 2.77    60 2.77    82 2.78    84 2.80    62 2.80   102 2.85
                             132 2.85   134 2.88    89 2.90
    93  0.131  0.050  0.080-   139 2.68    53 2.73    61 2.74    91 2.75    83 2.77   413 2.78   103 2.80    95 2.83
                              63 2.83   101 2.84   133 3.19
    94  0.381  0.050  0.080-   140 2.68    54 2.73    62 2.74    92 2.75    84 2.77   414 2.78   104 2.80    96 2.83
                              64 2.83   102 2.84   134 3.19
    95  0.207  0.000  0.085-   103 2.74   415 2.74   413 2.83    93 2.83    82 2.83   386 2.83    63 2.86   343 2.86
                              42 2.91   427 3.11   139 3.11   436 3.13   149 3.13
    96  0.457  0.000  0.085-   104 2.74   416 2.74   414 2.83    94 2.83   681 2.83   985 2.83    64 2.86   344 2.86
                             641 2.91   428 3.11   140 3.11  1035 3.13   150 3.13
    97  0.206  0.250  0.080-    65 2.73   108 2.73    57 2.74   111 2.76   105 2.76    89 2.76   137 2.77   143 2.79
                              67 2.80   119 2.82   100 2.85
    98  0.456  0.250  0.080-    66 2.73   707 2.73    58 2.74   112 2.76   106 2.76    90 2.76   138 2.77   144 2.79
                              68 2.80   120 2.82   699 2.85
    99  0.032  0.197  0.082-    91 2.72    59 2.75   107 2.77   101 2.80   690 2.81   109 2.82   744 2.82   668 2.83
                              69 2.85   698 2.85   147 2.86
   100  0.282  0.197  0.082-    92 2.72    60 2.75   108 2.77   102 2.80    89 2.81   110 2.82   143 2.82    67 2.83
                              70 2.85    97 2.85   148 2.86
   101  0.108  0.151  0.082-  1211 2.11   109 2.76   111 2.76   103 2.78    69 2.79    99 2.80    71 2.81    61 2.82
                              93 2.84    91 2.85   133 2.87   147 3.22   125 3.37
   102  0.358  0.151  0.082-  1212 2.11   110 2.76   112 2.76   104 2.78    70 2.79   100 2.80    72 2.81    62 2.82
                              94 2.84    92 2.85   134 2.87   148 3.22   126 3.37
   103  0.182  0.098  0.081-  1217 2.12    95 2.74    63 2.75   101 2.78    89 2.78    93 2.80    71 2.80    82 2.80
                              49 2.84   111 2.96   125 3.04   139 3.17   149 3.19
   104  0.432  0.098  0.081-  1218 2.12    96 2.74    64 2.75   102 2.78    90 2.78    94 2.80    72 2.80   681 2.80
                              50 2.84   112 2.96   126 3.04   140 3.17   150 3.19
   105  0.183  0.349  0.082-  1209 2.11    97 2.76   108 2.76   115 2.78    65 2.79   119 2.80    75 2.81    73 2.82
                             113 2.84    87 2.85   145 2.87   137 3.22   123 3.37
   106  0.433  0.349  0.082-  1210 2.11    98 2.76   707 2.76   116 2.78    66 2.79   120 2.80    76 2.81    74 2.82
                             114 2.84    88 2.85   146 2.87   138 3.22   124 3.37
   107  0.007  0.296  0.077-   668 2.62   724 2.69   676 2.73   698 2.73    77 2.75   109 2.76   706 2.76    99 2.77
                             117 2.79   716 2.96
   108  0.257  0.296  0.077-    67 2.62   123 2.69    75 2.73    97 2.73    78 2.75   110 2.76   105 2.76   100 2.77
                             118 2.79   115 2.96
   109  0.081  0.250  0.080-    69 2.73   111 2.73    77 2.74   107 2.76   101 2.76   117 2.76   147 2.77   129 2.79
                              79 2.80    99 2.82   119 2.85
   110  0.331  0.250  0.080-    70 2.73   112 2.73    78 2.74   108 2.76   102 2.76   118 2.76   148 2.77   130 2.79
                              80 2.80   100 2.82   120 2.85
   111  0.155  0.204  0.077-    79 2.62   125 2.69    71 2.73   109 2.73    57 2.75    97 2.76   101 2.76   119 2.77
                              89 2.79   103 2.96
   112  0.405  0.204  0.077-    80 2.62   126 2.69    72 2.73   110 2.73    58 2.75    98 2.76   102 2.76   120 2.77
                              90 2.79   104 2.96
   113  0.156  0.450  0.080-   127 2.68   353 2.73    73 2.74    87 2.75   383 2.77   393 2.78   115 2.80   395 2.83
                              43 2.83   105 2.84   145 3.19
   114  0.406  0.450  0.080-   128 2.68   354 2.73    74 2.74    88 2.75   384 2.77   394 2.78   116 2.80   396 2.83
                              44 2.83   106 2.84   146 3.19
   115  0.231  0.402  0.081-  1221 2.12   395 2.74    43 2.75   105 2.78   118 2.78   113 2.80    75 2.80    86 2.80
                              46 2.84   108 2.96   123 3.04   127 3.17   136 3.19
   116  0.481  0.402  0.081-  1222 2.12   396 2.74    44 2.75   106 2.78   717 2.78   114 2.80    76 2.80   685 2.80
                             645 2.84   707 2.96   124 3.04   128 3.17   735 3.19
   117  0.055  0.349  0.082-  1203 2.11    77 2.74   109 2.76   716 2.78    45 2.78   107 2.79   119 2.81    85 2.84
                             141 2.87    47 2.89    87 2.90   129 3.23   724 3.32
   118  0.305  0.349  0.082-  1204 2.11    78 2.74   110 2.76   115 2.78    46 2.78   108 2.79   120 2.81    86 2.84
                             142 2.87    48 2.89    88 2.90   130 3.23   123 3.32
   119  0.131  0.303  0.082-    87 2.72    47 2.75   111 2.77   105 2.80   117 2.81    97 2.82   129 2.82    79 2.83
                              65 2.85   109 2.85   137 2.86
   120  0.381  0.303  0.082-    88 2.72    48 2.75   112 2.77   106 2.80   118 2.81    98 2.82   130 2.82    80 2.83
                              66 2.85   110 2.85   138 2.86
   121  0.082  0.000  0.176-  1261 1.95  1219 1.95  1201 2.11  1207 2.12    83 2.66
   122  0.332  0.000  0.176-  1262 1.95  1220 1.95  1202 2.11  1208 2.12    84 2.66
   123  0.249  0.333  0.166-  1216 1.99  1221 2.01  1204 2.15  1209 2.16   108 2.69   115 3.04   118 3.32   105 3.37

   124  0.499  0.333  0.166-  1311 1.99  1222 2.01  1299 2.15  1210 2.16   707 2.69   116 3.04   717 3.32   106 3.37

   125  0.166  0.167  0.166-  1223 1.99  1217 2.01  1205 2.15  1211 2.16   111 2.69   103 3.04    89 3.32   101 3.37

   126  0.416  0.167  0.166-  1224 1.99  1218 2.01  1206 2.15  1212 2.16   112 2.69   104 3.04    90 3.32   102 3.37

   127  0.181  0.450  0.169-  1249 1.95  1221 1.99   145 2.60   113 2.68   439 2.78   136 2.97   395 3.11   115 3.17

   128  0.431  0.450  0.169-  1250 1.95  1222 1.99   146 2.60   114 2.68   440 2.78   735 2.97   396 3.11   116 3.17

   129  0.100  0.281  0.167-  1223 1.95  1203 2.00   147 2.64   109 2.79   119 2.82   137 2.85   141 2.99   117 3.23

   130  0.350  0.281  0.167-  1224 1.95  1204 2.00   148 2.64   110 2.79   120 2.82   138 2.85   142 2.99   118 3.23

   131  0.017  0.112  0.168-  1219 1.93  1302 1.99   750 2.60    91 2.85   133 2.86   690 2.87   744 2.99    81 3.16

   132  0.267  0.112  0.168-  1220 1.93  1205 1.99   149 2.60    92 2.85   134 2.86    89 2.87   143 2.99    82 3.16

   133  0.091  0.112  0.169-  1219 1.93  1211 1.99   139 2.60   131 2.86   101 2.87    91 2.88   147 2.98    93 3.19

   134  0.341  0.112  0.169-  1220 1.93  1212 1.99   140 2.60   132 2.86   102 2.87    92 2.88   148 2.98    94 3.19

   135  0.008  0.450  0.169-  1255 1.95  1318 1.99   141 2.60    85 2.68  1050 2.78   728 2.97   996 3.13   716 3.19

   136  0.258  0.450  0.169-  1256 1.95  1221 1.99   142 2.60    86 2.68   449 2.78   127 2.97   395 3.13   115 3.19

   137  0.174  0.281  0.167-  1223 1.95  1209 2.00   143 2.64    97 2.77   129 2.85   119 2.86   145 2.98   105 3.22

   138  0.424  0.281  0.167-  1224 1.95  1210 2.00   144 2.64    98 2.77   130 2.85   120 2.86   146 2.98   106 3.22

   139  0.156  0.050  0.169-  1201 1.95  1217 1.99   133 2.60    93 2.68   427 2.78   149 2.97    95 3.11   103 3.17

   140  0.406  0.050  0.169-  1202 1.95  1218 1.99   134 2.60    94 2.68   428 2.78   150 2.97    96 3.11   104 3.17

   141  0.073  0.388  0.168-  1213 1.93  1203 1.99   135 2.60    87 2.85   145 2.86   117 2.87   129 2.99    85 3.16

   142  0.323  0.388  0.168-  1214 1.93  1204 1.99   136 2.60    88 2.85   146 2.86   118 2.87   130 2.99    86 3.16

   143  0.241  0.219  0.167-  1216 1.95  1205 2.00   137 2.64    97 2.79   100 2.82   148 2.85   132 2.99    89 3.23

   144  0.491  0.219  0.167-  1311 1.95  1206 2.00   138 2.64    98 2.79   699 2.82   747 2.85   731 2.99    90 3.23

   145  0.147  0.388  0.169-  1213 1.93  1209 1.99   127 2.60   141 2.86   105 2.87    87 2.88   137 2.98   113 3.19

   146  0.397  0.388  0.169-  1214 1.93  1210 1.99   128 2.60   142 2.86   106 2.87    88 2.88   138 2.98   114 3.19

   147  0.064  0.219  0.167-  1215 1.95  1211 2.00   129 2.64   109 2.77   744 2.85    99 2.86   133 2.98   101 3.22

   148  0.314  0.219  0.167-  1216 1.95  1212 2.00   130 2.64   110 2.77   143 2.85   100 2.86   134 2.98   102 3.22

   149  0.233  0.050  0.169-  1208 1.95  1217 1.99   132 2.60    82 2.68   436 2.78   139 2.97    95 3.13   103 3.19

   150  0.483  0.050  0.169-  1303 1.95  1218 1.99   731 2.60   681 2.68  1035 2.78   140 2.97    96 3.13   104 3.19

   151  0.042  0.000  0.418-   465 2.80   161 2.80   159 2.80   455 2.80   774 2.80  1054 2.80   201 2.80   505 2.80
                             191 2.80
   152  0.292  0.000  0.418-   466 2.80   162 2.80   160 2.80   456 2.80   173 2.80   453 2.80   202 2.80   506 2.80
                             192 2.80
   153  0.242  0.450  0.418-   463 2.80   183 2.80   156 2.80   473 2.80   186 2.80   452 2.80   492 2.80   196 2.80
                             193 2.80
   154  0.492  0.450  0.418-   464 2.80   184 2.80   755 2.80   474 2.80   785 2.80  1051 2.80  1091 2.80   795 2.80
                             194 2.80
   155  0.067  0.400  0.418-   185 2.80   157 2.80   165 2.80   754 2.80   187 2.80   451 2.80   197 2.80   205 2.80
                             195 2.80
   156  0.317  0.400  0.418-   186 2.80   158 2.80   166 2.80   153 2.80   188 2.80   452 2.80   198 2.80   206 2.80
                             196 2.80
   157  0.142  0.350  0.418-   155 2.80   187 2.80   165 2.80   189 2.80   183 2.80   175 2.80   223 2.80   215 2.80
                             197 2.80
   158  0.392  0.350  0.418-   156 2.80   188 2.80   166 2.80   190 2.80   184 2.80   176 2.80   224 2.80   216 2.80
                             198 2.80
   159  0.017  0.100  0.418-   169 2.80   161 2.80   151 2.80   768 2.80   782 2.80   774 2.80   209 2.80   201 2.80
                             800 2.80
   160  0.267  0.100  0.418-   170 2.80   162 2.80   167 2.80   152 2.80   181 2.80   173 2.80   210 2.80   202 2.80
                             199 2.80
   161  0.092  0.050  0.418-   163 2.80   171 2.80   159 2.80   151 2.80   465 2.80   169 2.80   203 2.80   211 2.80
                             201 2.80
   162  0.342  0.050  0.418-   164 2.80   172 2.80   160 2.80   152 2.80   466 2.80   170 2.80   204 2.80   212 2.80
                             202 2.80
   163  0.167  0.000  0.418-   161 2.80   453 2.80   173 2.80   171 2.80   483 2.80   465 2.80   493 2.80   213 2.80
                             203 2.80
   164  0.417  0.000  0.418-   162 2.80   454 2.80   174 2.80   172 2.80   484 2.80   466 2.80   494 2.80   214 2.80
                             204 2.80
   165  0.117  0.450  0.418-   451 2.80   155 2.80   461 2.80   157 2.80   463 2.80   183 2.80   223 2.80   503 2.80
                             205 2.80
   166  0.367  0.450  0.418-   452 2.80   156 2.80   462 2.80   158 2.80   464 2.80   184 2.80   224 2.80   504 2.80
                             206 2.80
   167  0.242  0.200  0.418-   178 2.80   170 2.80   175 2.80   160 2.80   189 2.80   181 2.80   217 2.80   210 2.80
                             207 2.80
   168  0.492  0.200  0.418-   777 2.80   769 2.80   176 2.80   759 2.80   190 2.80   182 2.80   218 2.80   809 2.80
                             208 2.80
   169  0.067  0.150  0.418-   159 2.80   171 2.80   179 2.80   768 2.80   161 2.80   177 2.80   211 2.80   219 2.80
                             209 2.80
   170  0.317  0.150  0.418-   160 2.80   172 2.80   180 2.80   167 2.80   178 2.80   162 2.80   212 2.80   220 2.80
                             210 2.80
   171  0.142  0.100  0.418-   181 2.80   169 2.80   161 2.80   173 2.80   179 2.80   163 2.80   221 2.80   213 2.80
                             211 2.80
   172  0.392  0.100  0.418-   182 2.80   170 2.80   162 2.80   174 2.80   180 2.80   164 2.80   222 2.80   214 2.80
                             212 2.80
   173  0.217  0.050  0.418-   171 2.80   163 2.80   453 2.80   181 2.80   152 2.80   160 2.80   192 2.80   199 2.80
                             213 2.80
   174  0.467  0.050  0.418-   172 2.80   164 2.80   454 2.80   182 2.80   751 2.80   759 2.80   791 2.80   200 2.80
                             214 2.80
   175  0.217  0.300  0.418-   178 2.80   186 2.80   167 2.80   183 2.80   189 2.80   157 2.80   217 2.80   225 2.80
                             215 2.80
   176  0.467  0.300  0.418-   777 2.80   785 2.80   168 2.80   184 2.80   190 2.80   158 2.80   218 2.80   226 2.80
                             216 2.80
   177  0.042  0.250  0.418-   776 2.80   768 2.80   179 2.80   187 2.80   185 2.80   169 2.80   227 2.80   219 2.80
                             818 2.80
   178  0.292  0.250  0.418-   175 2.80   167 2.80   180 2.80   188 2.80   186 2.80   170 2.80   228 2.80   220 2.80
                             217 2.80
   179  0.117  0.200  0.418-   177 2.80   169 2.80   181 2.80   189 2.80   187 2.80   171 2.80   229 2.80   221 2.80
                             219 2.80
   180  0.367  0.200  0.418-   178 2.80   170 2.80   182 2.80   190 2.80   188 2.80   172 2.80   230 2.80   222 2.80
                             220 2.80
   181  0.192  0.150  0.418-   171 2.80   179 2.80   173 2.80   189 2.80   160 2.80   167 2.80   199 2.80   207 2.80
                             221 2.80
   182  0.442  0.150  0.418-   172 2.80   180 2.80   174 2.80   190 2.80   759 2.80   168 2.80   200 2.80   208 2.80
                             222 2.80
   183  0.192  0.400  0.418-   186 2.80   153 2.80   175 2.80   463 2.80   157 2.80   165 2.80   225 2.80   193 2.80
                             223 2.80
   184  0.442  0.400  0.418-   785 2.80   154 2.80   464 2.80   176 2.80   158 2.80   166 2.80   226 2.80   194 2.80
                             224 2.80
   185  0.017  0.350  0.418-   155 2.80   784 2.80   776 2.80   187 2.80   177 2.80   754 2.80   195 2.80   227 2.80
                             826 2.80
   186  0.267  0.350  0.418-   156 2.80   183 2.80   175 2.80   188 2.80   153 2.80   178 2.80   196 2.80   228 2.80
                             225 2.80
   187  0.092  0.300  0.418-   189 2.80   157 2.80   185 2.80   177 2.80   179 2.80   155 2.80   229 2.80   197 2.80
                             227 2.80
   188  0.342  0.300  0.418-   190 2.80   158 2.80   186 2.80   178 2.80   180 2.80   156 2.80   230 2.80   198 2.80
                             228 2.80
   189  0.167  0.250  0.418-   187 2.80   179 2.80   181 2.80   157 2.80   167 2.80   175 2.80   215 2.80   207 2.80
                             229 2.80
   190  0.417  0.250  0.418-   188 2.80   180 2.80   182 2.80   158 2.80   168 2.80   176 2.80   216 2.80   208 2.80
                             230 2.80
   191  0.000  0.000  0.500-   231 2.76   535 2.76   201 2.80   505 2.80   814 2.80   800 2.80   495 2.80  1094 2.80
                             774 2.80  1054 2.80   151 2.80   846 2.91
   192  0.250  0.000  0.500-   232 2.76   536 2.76   202 2.80   506 2.80   213 2.80   199 2.80   496 2.80   493 2.80
                             173 2.80   453 2.80   152 2.80   245 2.91
   193  0.200  0.450  0.500-   265 2.75   503 2.80   223 2.80   513 2.80   225 2.80   492 2.80   196 2.80   463 2.80
                             183 2.80   153 2.80   263 2.83   545 2.86
   194  0.450  0.450  0.500-   266 2.75   504 2.80   224 2.80   514 2.80   226 2.80  1091 2.80   795 2.80   464 2.80
                             184 2.80   154 2.80   264 2.83   546 2.86
   195  0.025  0.400  0.500-   235 2.75   267 2.78   197 2.80   205 2.80   227 2.80   491 2.80   826 2.80   794 2.80
                             185 2.80   754 2.80   155 2.80   866 2.84
   196  0.275  0.400  0.500-   236 2.75   268 2.78   198 2.80   206 2.80   228 2.80   492 2.80   225 2.80   193 2.80
                             186 2.80   153 2.80   156 2.80   265 2.84
   197  0.100  0.350  0.500-   269 2.75   237 2.77   195 2.80   227 2.80   215 2.80   223 2.80   205 2.80   229 2.80
                             155 2.80   187 2.80   157 2.80   267 2.89
   198  0.350  0.350  0.500-   270 2.75   238 2.77   196 2.80   228 2.80   216 2.80   224 2.80   206 2.80   230 2.80
                             156 2.80   188 2.80   158 2.80   268 2.89
   199  0.225  0.100  0.500-   232 2.75   239 2.78   221 2.80   213 2.80   202 2.80   210 2.80   207 2.80   192 2.80
                             181 2.80   173 2.80   160 2.80   253 2.84
   200  0.475  0.100  0.500-   831 2.75   240 2.78   222 2.80   214 2.80   801 2.80   809 2.80   791 2.80   208 2.80
                             182 2.80   174 2.80   759 2.80   254 2.84
   201  0.050  0.050  0.500-   241 2.77   233 2.77   231 2.78   191 2.80   800 2.80   505 2.80   209 2.80   203 2.80
                             211 2.80   151 2.80   159 2.80   161 2.80
   202  0.300  0.050  0.500-   242 2.77   234 2.77   232 2.78   192 2.80   199 2.80   506 2.80   210 2.80   204 2.80
                             212 2.80   152 2.80   160 2.80   162 2.80
   203  0.125  0.000  0.500-   243 2.73   563 2.73   493 2.80   213 2.80   211 2.80   523 2.80   505 2.80   201 2.80
                             161 2.80   465 2.80   163 2.80   233 2.83
   204  0.375  0.000  0.500-   244 2.73   564 2.73   494 2.80   214 2.80   212 2.80   524 2.80   506 2.80   202 2.80
                             162 2.80   466 2.80   164 2.80   234 2.83
   205  0.075  0.450  0.500-   237 2.77   533 2.77   235 2.78   491 2.80   195 2.80   223 2.80   501 2.80   197 2.80
                             503 2.80   451 2.80   155 2.80   165 2.80
   206  0.325  0.450  0.500-   238 2.77   534 2.77   236 2.78   492 2.80   196 2.80   224 2.80   502 2.80   198 2.80
                             504 2.80   452 2.80   156 2.80   166 2.80
   207  0.200  0.200  0.500-   247 2.74   239 2.74   261 2.75   217 2.80   229 2.80   221 2.80   210 2.80   215 2.80
                             199 2.80   189 2.80   181 2.80   167 2.80
   208  0.450  0.200  0.500-   248 2.74   240 2.74   262 2.75   218 2.80   230 2.80   222 2.80   809 2.80   216 2.80
                             200 2.80   190 2.80   182 2.80   168 2.80
   209  0.025  0.150  0.500-   249 2.75   241 2.77   808 2.80   800 2.80   201 2.80   818 2.80   211 2.80   219 2.80
                             159 2.80   768 2.80   169 2.80   840 2.89
   210  0.275  0.150  0.500-   250 2.75   242 2.77   207 2.80   199 2.80   202 2.80   217 2.80   212 2.80   220 2.80
                             160 2.80   167 2.80   170 2.80   239 2.89
   211  0.100  0.100  0.500-   243 2.74   213 2.80   221 2.80   203 2.80   219 2.80   209 2.80   201 2.80   169 2.80
                             161 2.80   171 2.80   241 2.80   251 2.82
   212  0.350  0.100  0.500-   244 2.74   214 2.80   222 2.80   204 2.80   220 2.80   210 2.80   202 2.80   170 2.80
                             162 2.80   172 2.80   242 2.80   252 2.82
   213  0.175  0.050  0.500-   253 2.75   203 2.80   192 2.80   199 2.80   211 2.80   493 2.80   221 2.80   163 2.80
                             171 2.80   173 2.80   243 2.83   245 2.86
   214  0.425  0.050  0.500-   254 2.75   204 2.80   791 2.80   200 2.80   212 2.80   494 2.80   222 2.80   164 2.80
                             172 2.80   174 2.80   244 2.83   246 2.86
   215  0.175  0.300  0.500-   247 2.73   255 2.79   229 2.80   217 2.80   197 2.80   225 2.80   207 2.80   223 2.80
                             189 2.80   157 2.80   175 2.80   269 2.85
   216  0.425  0.300  0.500-   248 2.73   256 2.79   230 2.80   218 2.80   198 2.80   226 2.80   208 2.80   224 2.80
                             190 2.80   158 2.80   176 2.80   270 2.85
   217  0.250  0.250  0.500-   258 2.62   207 2.80   215 2.80   225 2.80   210 2.80   228 2.80   220 2.80   175 2.80
                             167 2.80   178 2.80   247 2.80   250 2.83
   218  0.500  0.250  0.500-   857 2.62   208 2.80   216 2.80   809 2.80   226 2.80   827 2.80   819 2.80   176 2.80
                             168 2.80   777 2.80   248 2.80   849 2.83
   219  0.075  0.200  0.500-   259 2.73   251 2.79   229 2.80   221 2.80   227 2.80   211 2.80   818 2.80   209 2.80
                             177 2.80   169 2.80   179 2.80   249 2.85
   220  0.325  0.200  0.500-   260 2.73   252 2.79   230 2.80   222 2.80   228 2.80   212 2.80   217 2.80   210 2.80
                             178 2.80   170 2.80   180 2.80   250 2.85
   221  0.150  0.150  0.500-   261 2.73   199 2.80   207 2.80   219 2.80   211 2.80   229 2.80   213 2.80   171 2.80
                             179 2.80   181 2.80   253 2.80   251 2.81
   222  0.400  0.150  0.500-   262 2.73   200 2.80   208 2.80   220 2.80   212 2.80   230 2.80   214 2.80   172 2.80
                             180 2.80   182 2.80   254 2.80   252 2.81
   223  0.150  0.400  0.500-   263 2.74   225 2.80   193 2.80   205 2.80   197 2.80   215 2.80   503 2.80   157 2.80
                             165 2.80   183 2.80   237 2.80   255 2.82
   224  0.400  0.400  0.500-   264 2.74   226 2.80   194 2.80   206 2.80   198 2.80   216 2.80   504 2.80   158 2.80
                             166 2.80   184 2.80   238 2.80   256 2.82
   225  0.225  0.350  0.500-   258 2.73   223 2.80   215 2.80   193 2.80   217 2.80   228 2.80   196 2.80   183 2.80
                             175 2.80   186 2.80   265 2.80   255 2.81
   226  0.475  0.350  0.500-   857 2.73   224 2.80   216 2.80   194 2.80   218 2.80   827 2.80   795 2.80   184 2.80
                             176 2.80   785 2.80   266 2.80   256 2.81
   227  0.050  0.300  0.500-   259 2.74   267 2.74   257 2.75   229 2.80   197 2.80   219 2.80   195 2.80   826 2.80
                             818 2.80   177 2.80   185 2.80   187 2.80
   228  0.300  0.300  0.500-   260 2.74   268 2.74   258 2.75   230 2.80   198 2.80   220 2.80   196 2.80   225 2.80
                             217 2.80   178 2.80   186 2.80   188 2.80
   229  0.125  0.250  0.500-   261 2.62   219 2.80   215 2.80   227 2.80   207 2.80   197 2.80   221 2.80   187 2.80
                             179 2.80   189 2.80   259 2.80   269 2.83
   230  0.375  0.250  0.500-   262 2.62   220 2.80   216 2.80   228 2.80   208 2.80   198 2.80   222 2.80   188 2.80
                             180 2.80   190 2.80   260 2.80   270 2.83
   231  0.007  0.050  0.580-   900 2.68   800 2.75   191 2.76   233 2.76   201 2.78   241 2.78   535 2.80   854 2.80
                             846 2.83   840 2.84   281 3.16
   232  0.257  0.050  0.580-   299 2.68   199 2.75   192 2.76   234 2.76   202 2.78   242 2.78   536 2.80   253 2.80
                             245 2.83   239 2.84   282 3.16
   233  0.081  0.000  0.581-   271 2.66   535 2.76   231 2.76   243 2.77   505 2.77   201 2.77   563 2.77   537 2.80
                             241 2.80   203 2.83
   234  0.331  0.000  0.581-   272 2.66   536 2.76   232 2.76   244 2.77   506 2.77   202 2.77   564 2.77   538 2.80
                             242 2.80   204 2.83
   235  0.033  0.450  0.580-   285 2.68   195 2.75   491 2.76   533 2.76   205 2.78   237 2.78   531 2.80   866 2.80
                            1146 2.83   267 2.84   291 3.16
   236  0.283  0.450  0.580-   286 2.68   196 2.75   492 2.76   534 2.76   206 2.78   238 2.78   532 2.80   265 2.80
                             545 2.83   268 2.84   292 3.16
   237  0.107  0.400  0.581-   269 2.72   263 2.75   205 2.77   197 2.77   235 2.78   533 2.80   223 2.80   255 2.85
                             291 2.85   295 2.88   267 2.90
   238  0.357  0.400  0.581-   270 2.72   264 2.75   206 2.77   198 2.77   236 2.78   534 2.80   224 2.80   256 2.85
                             292 2.85   296 2.88   268 2.90
   239  0.229  0.151  0.582-  1229 2.11   207 2.74   247 2.76   253 2.78   199 2.78   261 2.79   250 2.81   232 2.84
                             282 2.87   210 2.89   242 2.90   293 3.23   275 3.32
   240  0.479  0.151  0.582-  1230 2.11   208 2.74   248 2.76   254 2.78   200 2.78   262 2.79   849 2.81   831 2.84
                             881 2.87   809 2.89   841 2.90   294 3.23   276 3.32
   241  0.057  0.100  0.581-   249 2.72   243 2.75   201 2.77   209 2.77   231 2.78   233 2.80   211 2.80   251 2.85
                             281 2.85   283 2.88   840 2.90
   242  0.307  0.100  0.581-   250 2.72   244 2.75   202 2.77   210 2.77   232 2.78   234 2.80   212 2.80   252 2.85
                             282 2.85   284 2.88   239 2.90
   243  0.131  0.050  0.580-   289 2.68   203 2.73   211 2.74   241 2.75   233 2.77   563 2.78   253 2.80   245 2.83
                             213 2.83   251 2.84   283 3.19
   244  0.381  0.050  0.580-   290 2.68   204 2.73   212 2.74   242 2.75   234 2.77   564 2.78   254 2.80   246 2.83
                             214 2.83   252 2.84   284 3.19
   245  0.207  0.000  0.585-   253 2.74   565 2.74   563 2.83   243 2.83   232 2.83   536 2.83   213 2.86   493 2.86
                             192 2.91   577 3.11   289 3.11   586 3.13   299 3.13
   246  0.457  0.000  0.585-   254 2.74   566 2.74   564 2.83   244 2.83   831 2.83  1135 2.83   214 2.86   494 2.86
                             791 2.91   578 3.11   290 3.11  1185 3.13   300 3.13
   247  0.206  0.250  0.580-   215 2.73   258 2.73   207 2.74   261 2.76   255 2.76   239 2.76   287 2.77   293 2.79
                             217 2.80   269 2.82   250 2.85
   248  0.456  0.250  0.580-   216 2.73   857 2.73   208 2.74   262 2.76   256 2.76   240 2.76   288 2.77   294 2.79
                             218 2.80   270 2.82   849 2.85
   249  0.032  0.197  0.582-   241 2.72   209 2.75   257 2.77   251 2.80   840 2.81   259 2.82   894 2.82   818 2.83
                             219 2.85   848 2.85   297 2.86
   250  0.282  0.197  0.582-   242 2.72   210 2.75   258 2.77   252 2.80   239 2.81   260 2.82   293 2.82   217 2.83
                             220 2.85   247 2.85   298 2.86
   251  0.108  0.151  0.582-  1235 2.11   259 2.76   261 2.76   253 2.78   219 2.79   249 2.80   221 2.81   211 2.82
                             243 2.84   241 2.85   283 2.87   297 3.22   275 3.37
   252  0.358  0.151  0.582-  1236 2.11   260 2.76   262 2.76   254 2.78   220 2.79   250 2.80   222 2.81   212 2.82
                             244 2.84   242 2.85   284 2.87   298 3.22   276 3.37
   253  0.182  0.098  0.581-  1241 2.12   245 2.74   213 2.75   251 2.78   239 2.78   243 2.80   221 2.80   232 2.80
                             199 2.84   261 2.96   275 3.04   289 3.17   299 3.19
   254  0.432  0.098  0.581-  1242 2.12   246 2.74   214 2.75   252 2.78   240 2.78   244 2.80   222 2.80   831 2.80
                             200 2.84   262 2.96   276 3.04   290 3.17   300 3.19
   255  0.183  0.349  0.582-  1233 2.11   247 2.76   258 2.76   265 2.78   215 2.79   269 2.80   225 2.81   223 2.82
                             263 2.84   237 2.85   295 2.87   287 3.22   273 3.37
   256  0.433  0.349  0.582-  1234 2.11   248 2.76   857 2.76   266 2.78   216 2.79   270 2.80   226 2.81   224 2.82
                             264 2.84   238 2.85   296 2.87   288 3.22   274 3.37
   257  0.007  0.296  0.577-   818 2.62   874 2.69   826 2.73   848 2.73   227 2.75   259 2.76   856 2.76   249 2.77
                             267 2.79   866 2.96
   258  0.257  0.296  0.577-   217 2.62   273 2.69   225 2.73   247 2.73   228 2.75   260 2.76   255 2.76   250 2.77
                             268 2.79   265 2.96
   259  0.081  0.250  0.580-   219 2.73   261 2.73   227 2.74   257 2.76   251 2.76   267 2.76   297 2.77   279 2.79
                             229 2.80   249 2.82   269 2.85
   260  0.331  0.250  0.580-   220 2.73   262 2.73   228 2.74   258 2.76   252 2.76   268 2.76   298 2.77   280 2.79
                             230 2.80   250 2.82   270 2.85
   261  0.155  0.204  0.577-   229 2.62   275 2.69   221 2.73   259 2.73   207 2.75   247 2.76   251 2.76   269 2.77
                             239 2.79   253 2.96
   262  0.405  0.204  0.577-   230 2.62   276 2.69   222 2.73   260 2.73   208 2.75   248 2.76   252 2.76   270 2.77
                             240 2.79   254 2.96
   263  0.156  0.450  0.580-   277 2.68   503 2.73   223 2.74   237 2.75   533 2.77   543 2.78   265 2.80   545 2.83
                             193 2.83   255 2.84   295 3.19
   264  0.406  0.450  0.580-   278 2.68   504 2.73   224 2.74   238 2.75   534 2.77   544 2.78   266 2.80   546 2.83
                             194 2.83   256 2.84   296 3.19
   265  0.231  0.402  0.581-  1245 2.12   545 2.74   193 2.75   255 2.78   268 2.78   263 2.80   225 2.80   236 2.80
                             196 2.84   258 2.96   273 3.04   277 3.17   286 3.19
   266  0.481  0.402  0.581-  1246 2.12   546 2.74   194 2.75   256 2.78   867 2.78   264 2.80   226 2.80   835 2.80
                             795 2.84   857 2.96   274 3.04   278 3.17   885 3.19
   267  0.055  0.349  0.582-  1227 2.11   227 2.74   259 2.76   866 2.78   195 2.78   257 2.79   269 2.81   235 2.84
                             291 2.87   197 2.89   237 2.90   279 3.23   874 3.32
   268  0.305  0.349  0.582-  1228 2.11   228 2.74   260 2.76   265 2.78   196 2.78   258 2.79   270 2.81   236 2.84
                             292 2.87   198 2.89   238 2.90   280 3.23   273 3.32
   269  0.131  0.303  0.582-   237 2.72   197 2.75   261 2.77   255 2.80   267 2.81   247 2.82   279 2.82   229 2.83
                             215 2.85   259 2.85   287 2.86
   270  0.381  0.303  0.582-   238 2.72   198 2.75   262 2.77   256 2.80   268 2.81   248 2.82   280 2.82   230 2.83
                             216 2.85   260 2.85   288 2.86
   271  0.082  0.000  0.676-  1285 1.95  1243 1.95  1225 2.11  1231 2.12   233 2.66
   272  0.332  0.000  0.676-  1286 1.95  1244 1.95  1226 2.11  1232 2.12   234 2.66
   273  0.249  0.333  0.666-  1240 1.99  1245 2.01  1228 2.15  1233 2.16   258 2.69   265 3.04   268 3.32   255 3.37

   274  0.499  0.333  0.666-  1335 1.99  1246 2.01  1323 2.15  1234 2.16   857 2.69   266 3.04   867 3.32   256 3.37

   275  0.166  0.167  0.666-  1247 1.99  1241 2.01  1229 2.15  1235 2.16   261 2.69   253 3.04   239 3.32   251 3.37

   276  0.416  0.167  0.666-  1248 1.99  1242 2.01  1230 2.15  1236 2.16   262 2.69   254 3.04   240 3.32   252 3.37

   277  0.181  0.450  0.669-  1273 1.95  1245 1.99   295 2.60   263 2.68   589 2.78   286 2.97   545 3.11   265 3.17

   278  0.431  0.450  0.669-  1274 1.95  1246 1.99   296 2.60   264 2.68   590 2.78   885 2.97   546 3.11   266 3.17

   279  0.100  0.281  0.667-  1247 1.95  1227 2.00   297 2.64   259 2.79   269 2.82   287 2.85   291 2.99   267 3.23

   280  0.350  0.281  0.667-  1248 1.95  1228 2.00   298 2.64   260 2.79   270 2.82   288 2.85   292 2.99   268 3.23

   281  0.017  0.112  0.668-  1243 1.93  1326 1.99   900 2.60   241 2.85   283 2.86   840 2.87   894 2.99   231 3.16

   282  0.267  0.112  0.668-  1244 1.93  1229 1.99   299 2.60   242 2.85   284 2.86   239 2.87   293 2.99   232 3.16

   283  0.091  0.112  0.669-  1243 1.93  1235 1.99   289 2.60   281 2.86   251 2.87   241 2.88   297 2.98   243 3.19

   284  0.341  0.112  0.669-  1244 1.93  1236 1.99   290 2.60   282 2.86   252 2.87   242 2.88   298 2.98   244 3.19

   285  0.008  0.450  0.669-  1279 1.95  1342 1.99   291 2.60   235 2.68  1200 2.78   878 2.97  1146 3.13   866 3.19

   286  0.258  0.450  0.669-  1280 1.95  1245 1.99   292 2.60   236 2.68   599 2.78   277 2.97   545 3.13   265 3.19

   287  0.174  0.281  0.667-  1247 1.95  1233 2.00   293 2.64   247 2.77   279 2.85   269 2.86   295 2.98   255 3.22

   288  0.424  0.281  0.667-  1248 1.95  1234 2.00   294 2.64   248 2.77   280 2.85   270 2.86   296 2.98   256 3.22

   289  0.156  0.050  0.669-  1225 1.95  1241 1.99   283 2.60   243 2.68   577 2.78   299 2.97   245 3.11   253 3.17

   290  0.406  0.050  0.669-  1226 1.95  1242 1.99   284 2.60   244 2.68   578 2.78   300 2.97   246 3.11   254 3.17

   291  0.073  0.388  0.668-  1237 1.93  1227 1.99   285 2.60   237 2.85   295 2.86   267 2.87   279 2.99   235 3.16

   292  0.323  0.388  0.668-  1238 1.93  1228 1.99   286 2.60   238 2.85   296 2.86   268 2.87   280 2.99   236 3.16

   293  0.241  0.219  0.667-  1240 1.95  1229 2.00   287 2.64   247 2.79   250 2.82   298 2.85   282 2.99   239 3.23

   294  0.491  0.219  0.667-  1335 1.95  1230 2.00   288 2.64   248 2.79   849 2.82   897 2.85   881 2.99   240 3.23

   295  0.147  0.388  0.669-  1237 1.93  1233 1.99   277 2.60   291 2.86   255 2.87   237 2.88   287 2.98   263 3.19

   296  0.397  0.388  0.669-  1238 1.93  1234 1.99   278 2.60   292 2.86   256 2.87   238 2.88   288 2.98   264 3.19

   297  0.064  0.219  0.667-  1239 1.95  1235 2.00   279 2.64   259 2.77   894 2.85   249 2.86   283 2.98   251 3.22

   298  0.314  0.219  0.667-  1240 1.95  1236 2.00   280 2.64   260 2.77   293 2.85   250 2.86   284 2.98   252 3.22

   299  0.233  0.050  0.669-  1232 1.95  1241 1.99   282 2.60   232 2.68   586 2.78   289 2.97   245 3.13   253 3.19

   300  0.483  0.050  0.669-  1327 1.95  1242 1.99   881 2.60   831 2.68  1185 2.78   290 2.97   246 3.13   254 3.19

   301  0.042  0.500  0.918-    15 2.80   311 2.80   309 2.80     5 2.80   924 2.80   604 2.80   351 2.80    55 2.80
                             341 2.80
   302  0.292  0.500  0.918-    16 2.80   312 2.80   310 2.80     6 2.80   323 2.80     3 2.80   352 2.80    56 2.80
                             342 2.80
   303  0.242  0.950  0.918-    13 2.80   333 2.80   306 2.80    23 2.80   336 2.80     2 2.80    42 2.80   346 2.80
                             343 2.80
   304  0.492  0.950  0.918-    14 2.80   334 2.80   905 2.80    24 2.80   935 2.80   601 2.80   641 2.80   945 2.80
                             344 2.80
   305  0.067  0.900  0.918-   335 2.80   307 2.80   315 2.80   904 2.80   337 2.80     1 2.80   347 2.80   355 2.80
                             345 2.80
   306  0.317  0.900  0.918-   336 2.80   308 2.80   316 2.80   303 2.80   338 2.80     2 2.80   348 2.80   356 2.80
                             346 2.80
   307  0.142  0.850  0.918-   305 2.80   337 2.80   315 2.80   339 2.80   333 2.80   325 2.80   373 2.80   365 2.80
                             347 2.80
   308  0.392  0.850  0.918-   306 2.80   338 2.80   316 2.80   340 2.80   334 2.80   326 2.80   374 2.80   366 2.80
                             348 2.80
   309  0.017  0.600  0.918-   319 2.80   311 2.80   301 2.80   918 2.80   932 2.80   924 2.80   359 2.80   351 2.80
                             950 2.80
   310  0.267  0.600  0.918-   320 2.80   312 2.80   317 2.80   302 2.80   331 2.80   323 2.80   360 2.80   352 2.80
                             349 2.80
   311  0.092  0.550  0.918-   313 2.80   321 2.80   309 2.80   301 2.80    15 2.80   319 2.80   353 2.80   361 2.80
                             351 2.80
   312  0.342  0.550  0.918-   314 2.80   322 2.80   310 2.80   302 2.80    16 2.80   320 2.80   354 2.80   362 2.80
                             352 2.80
   313  0.167  0.500  0.918-   311 2.80     3 2.80   323 2.80   321 2.80    33 2.80    15 2.80    43 2.80   363 2.80
                             353 2.80
   314  0.417  0.500  0.918-   312 2.80     4 2.80   324 2.80   322 2.80    34 2.80    16 2.80    44 2.80   364 2.80
                             354 2.80
   315  0.117  0.950  0.918-     1 2.80   305 2.80    11 2.80   307 2.80    13 2.80   333 2.80   373 2.80    53 2.80
                             355 2.80
   316  0.367  0.950  0.918-     2 2.80   306 2.80    12 2.80   308 2.80    14 2.80   334 2.80   374 2.80    54 2.80
                             356 2.80
   317  0.242  0.700  0.918-   328 2.80   320 2.80   325 2.80   310 2.80   339 2.80   331 2.80   367 2.80   360 2.80
                             357 2.80
   318  0.492  0.700  0.918-   927 2.80   919 2.80   326 2.80   909 2.80   340 2.80   332 2.80   368 2.80   959 2.80
                             358 2.80
   319  0.067  0.650  0.918-   309 2.80   321 2.80   329 2.80   918 2.80   311 2.80   327 2.80   361 2.80   369 2.80
                             359 2.80
   320  0.317  0.650  0.918-   310 2.80   322 2.80   330 2.80   317 2.80   328 2.80   312 2.80   362 2.80   370 2.80
                             360 2.80
   321  0.142  0.600  0.918-   331 2.80   319 2.80   311 2.80   323 2.80   329 2.80   313 2.80   371 2.80   363 2.80
                             361 2.80
   322  0.392  0.600  0.918-   332 2.80   320 2.80   312 2.80   324 2.80   330 2.80   314 2.80   372 2.80   364 2.80
                             362 2.80
   323  0.217  0.550  0.918-   321 2.80   313 2.80     3 2.80   331 2.80   302 2.80   310 2.80   342 2.80   349 2.80
                             363 2.80
   324  0.467  0.550  0.918-   322 2.80   314 2.80     4 2.80   332 2.80   901 2.80   909 2.80   941 2.80   350 2.80
                             364 2.80
   325  0.217  0.800  0.918-   328 2.80   336 2.80   317 2.80   333 2.80   339 2.80   307 2.80   367 2.80   375 2.80
                             365 2.80
   326  0.467  0.800  0.918-   927 2.80   935 2.80   318 2.80   334 2.80   340 2.80   308 2.80   368 2.80   376 2.80
                             366 2.80
   327  0.042  0.750  0.918-   926 2.80   918 2.80   329 2.80   337 2.80   335 2.80   319 2.80   377 2.80   369 2.80
                             968 2.80
   328  0.292  0.750  0.918-   325 2.80   317 2.80   330 2.80   338 2.80   336 2.80   320 2.80   378 2.80   370 2.80
                             367 2.80
   329  0.117  0.700  0.918-   327 2.80   319 2.80   331 2.80   339 2.80   337 2.80   321 2.80   379 2.80   371 2.80
                             369 2.80
   330  0.367  0.700  0.918-   328 2.80   320 2.80   332 2.80   340 2.80   338 2.80   322 2.80   380 2.80   372 2.80
                             370 2.80
   331  0.192  0.650  0.918-   321 2.80   329 2.80   323 2.80   339 2.80   310 2.80   317 2.80   349 2.80   357 2.80
                             371 2.80
   332  0.442  0.650  0.918-   322 2.80   330 2.80   324 2.80   340 2.80   909 2.80   318 2.80   350 2.80   358 2.80
                             372 2.80
   333  0.192  0.900  0.918-   336 2.80   303 2.80   325 2.80    13 2.80   307 2.80   315 2.80   375 2.80   343 2.80
                             373 2.80
   334  0.442  0.900  0.918-   935 2.80   304 2.80   326 2.80    14 2.80   308 2.80   316 2.80   376 2.80   344 2.80
                             374 2.80
   335  0.017  0.850  0.918-   305 2.80   934 2.80   926 2.80   337 2.80   327 2.80   904 2.80   345 2.80   377 2.80
                             976 2.80
   336  0.267  0.850  0.918-   306 2.80   333 2.80   325 2.80   338 2.80   303 2.80   328 2.80   346 2.80   378 2.80
                             375 2.80
   337  0.092  0.800  0.918-   339 2.80   307 2.80   335 2.80   327 2.80   329 2.80   305 2.80   379 2.80   347 2.80
                             377 2.80
   338  0.342  0.800  0.918-   340 2.80   308 2.80   336 2.80   328 2.80   330 2.80   306 2.80   380 2.80   348 2.80
                             378 2.80
   339  0.167  0.750  0.918-   337 2.80   329 2.80   331 2.80   307 2.80   317 2.80   325 2.80   365 2.80   357 2.80
                             379 2.80
   340  0.417  0.750  0.918-   338 2.80   330 2.80   332 2.80   308 2.80   318 2.80   326 2.80   366 2.80   358 2.80
                             380 2.80
   341  0.000  0.500  0.000-   381 2.76    85 2.76   351 2.80    55 2.80   964 2.80   950 2.80    45 2.80   644 2.80
                             924 2.80   604 2.80   301 2.80   996 2.91
   342  0.250  0.500  0.000-   382 2.76    86 2.76   352 2.80   363 2.80    56 2.80   349 2.80    46 2.80    43 2.80
                             323 2.80     3 2.80   302 2.80   395 2.91
   343  0.200  0.950  0.000-   415 2.75    53 2.80   373 2.80    63 2.80   375 2.80    42 2.80   346 2.80    13 2.80
                             333 2.80   303 2.80   413 2.83    95 2.86
   344  0.450  0.950  0.000-   416 2.75    54 2.80   374 2.80    64 2.80   376 2.80   641 2.80   945 2.80    14 2.80
                             334 2.80   304 2.80   414 2.83    96 2.86
   345  0.025  0.900  0.000-   385 2.75   417 2.78   347 2.80   355 2.80    41 2.80   377 2.80   976 2.80   944 2.80
                             335 2.80   904 2.80   305 2.80  1016 2.84
   346  0.275  0.900  0.000-   386 2.75   418 2.78   348 2.80   356 2.80    42 2.80   378 2.80   375 2.80   343 2.80
                             336 2.80   303 2.80   306 2.80   415 2.84
   347  0.100  0.850  0.000-   419 2.75   387 2.77   345 2.80   377 2.80   365 2.80   373 2.80   355 2.80   379 2.80
                             305 2.80   337 2.80   307 2.80   417 2.89
   348  0.350  0.850  0.000-   420 2.75   388 2.77   346 2.80   378 2.80   366 2.80   374 2.80   356 2.80   380 2.80
                             306 2.80   338 2.80   308 2.80   418 2.89
   349  0.225  0.600  0.000-   382 2.75   389 2.78   371 2.80   363 2.80   352 2.80   360 2.80   357 2.80   342 2.80
                             331 2.80   323 2.80   310 2.80   403 2.84
   350  0.475  0.600  0.000-   981 2.75   390 2.78   372 2.80   364 2.80   951 2.80   959 2.80   941 2.80   358 2.80
                             332 2.80   324 2.80   909 2.80   404 2.84
   351  0.050  0.550  0.000-   391 2.77   383 2.77   381 2.78   341 2.80   950 2.80    55 2.80   359 2.80   353 2.80
                             361 2.80   301 2.80   309 2.80   311 2.80
   352  0.300  0.550  0.000-   392 2.77   384 2.77   382 2.78   342 2.80   349 2.80    56 2.80   360 2.80   354 2.80
                             362 2.80   302 2.80   310 2.80   312 2.80
   353  0.125  0.500  0.000-   393 2.73   113 2.73    43 2.80   363 2.80   361 2.80    73 2.80    55 2.80   351 2.80
                             311 2.80    15 2.80   313 2.80   383 2.83
   354  0.375  0.500  0.000-   394 2.73   114 2.73    44 2.80   364 2.80   362 2.80    74 2.80    56 2.80   352 2.80
                             312 2.80    16 2.80   314 2.80   384 2.83
   355  0.075  0.950  0.000-   387 2.77    83 2.77   385 2.78    41 2.80   345 2.80   373 2.80    51 2.80   347 2.80
                              53 2.80     1 2.80   305 2.80   315 2.80
   356  0.325  0.950  0.000-   388 2.77    84 2.77   386 2.78    42 2.80   346 2.80   374 2.80    52 2.80   348 2.80
                              54 2.80     2 2.80   306 2.80   316 2.80
   357  0.200  0.700  0.000-   397 2.74   389 2.74   411 2.75   367 2.80   379 2.80   371 2.80   360 2.80   365 2.80
                             349 2.80   339 2.80   331 2.80   317 2.80
   358  0.450  0.700  0.000-   398 2.74   390 2.74   412 2.75   368 2.80   380 2.80   372 2.80   959 2.80   366 2.80
                             350 2.80   340 2.80   332 2.80   318 2.80
   359  0.025  0.650  0.000-   399 2.75   391 2.77   958 2.80   950 2.80   351 2.80   968 2.80   361 2.80   369 2.80
                             309 2.80   918 2.80   319 2.80   990 2.89
   360  0.275  0.650  0.000-   400 2.75   392 2.77   357 2.80   349 2.80   352 2.80   367 2.80   362 2.80   370 2.80
                             310 2.80   317 2.80   320 2.80   389 2.89
   361  0.100  0.600  0.000-   393 2.74   363 2.80   371 2.80   353 2.80   369 2.80   359 2.80   351 2.80   319 2.80
                             311 2.80   321 2.80   391 2.80   401 2.82
   362  0.350  0.600  0.000-   394 2.74   364 2.80   372 2.80   354 2.80   370 2.80   360 2.80   352 2.80   320 2.80
                             312 2.80   322 2.80   392 2.80   402 2.82
   363  0.175  0.550  0.000-   403 2.75   353 2.80   342 2.80   349 2.80   361 2.80    43 2.80   371 2.80   313 2.80
                             321 2.80   323 2.80   393 2.83   395 2.86
   364  0.425  0.550  0.000-   404 2.75   354 2.80   941 2.80   350 2.80   362 2.80    44 2.80   372 2.80   314 2.80
                             322 2.80   324 2.80   394 2.83   396 2.86
   365  0.175  0.800  0.000-   397 2.73   405 2.79   379 2.80   367 2.80   347 2.80   375 2.80   357 2.80   373 2.80
                             339 2.80   307 2.80   325 2.80   419 2.85
   366  0.425  0.800  0.000-   398 2.73   406 2.79   380 2.80   368 2.80   348 2.80   376 2.80   358 2.80   374 2.80
                             340 2.80   308 2.80   326 2.80   420 2.85
   367  0.250  0.750  0.000-   408 2.62   357 2.80   365 2.80   375 2.80   360 2.80   378 2.80   370 2.80   325 2.80
                             317 2.80   328 2.80   397 2.80   400 2.83
   368  0.500  0.750  0.000-  1007 2.62   358 2.80   366 2.80   959 2.80   376 2.80   977 2.80   969 2.80   326 2.80
                             318 2.80   927 2.80   398 2.80   999 2.83
   369  0.075  0.700  0.000-   409 2.73   401 2.79   379 2.80   371 2.80   377 2.80   361 2.80   968 2.80   359 2.80
                             327 2.80   319 2.80   329 2.80   399 2.85
   370  0.325  0.700  0.000-   410 2.73   402 2.79   380 2.80   372 2.80   378 2.80   362 2.80   367 2.80   360 2.80
                             328 2.80   320 2.80   330 2.80   400 2.85
   371  0.150  0.650  0.000-   411 2.73   349 2.80   357 2.80   369 2.80   361 2.80   379 2.80   363 2.80   321 2.80
                             329 2.80   331 2.80   403 2.80   401 2.81
   372  0.400  0.650  0.000-   412 2.73   350 2.80   358 2.80   370 2.80   362 2.80   380 2.80   364 2.80   322 2.80
                             330 2.80   332 2.80   404 2.80   402 2.81
   373  0.150  0.900  0.000-   413 2.74   375 2.80   343 2.80   355 2.80   347 2.80   365 2.80    53 2.80   307 2.80
                             315 2.80   333 2.80   387 2.80   405 2.82
   374  0.400  0.900  0.000-   414 2.74   376 2.80   344 2.80   356 2.80   348 2.80   366 2.80    54 2.80   308 2.80
                             316 2.80   334 2.80   388 2.80   406 2.82
   375  0.225  0.850  0.000-   408 2.73   373 2.80   365 2.80   343 2.80   367 2.80   378 2.80   346 2.80   333 2.80
                             325 2.80   336 2.80   415 2.80   405 2.81
   376  0.475  0.850  0.000-  1007 2.73   374 2.80   366 2.80   344 2.80   368 2.80   977 2.80   945 2.80   334 2.80
                             326 2.80   935 2.80   416 2.80   406 2.81
   377  0.050  0.800  0.000-   409 2.74   417 2.74   407 2.75   379 2.80   347 2.80   369 2.80   345 2.80   976 2.80
                             968 2.80   327 2.80   335 2.80   337 2.80
   378  0.300  0.800  0.000-   410 2.74   418 2.74   408 2.75   380 2.80   348 2.80   370 2.80   346 2.80   375 2.80
                             367 2.80   328 2.80   336 2.80   338 2.80
   379  0.125  0.750  0.000-   411 2.62   369 2.80   365 2.80   377 2.80   357 2.80   347 2.80   371 2.80   337 2.80
                             329 2.80   339 2.80   409 2.80   419 2.83
   380  0.375  0.750  0.000-   412 2.62   370 2.80   366 2.80   378 2.80   358 2.80   348 2.80   372 2.80   338 2.80
                             330 2.80   340 2.80   410 2.80   420 2.83
   381  0.007  0.550  0.080-  1050 2.68   950 2.75   341 2.76   383 2.76   351 2.78   391 2.78    85 2.80  1004 2.80
                             996 2.83   990 2.84   431 3.16
   382  0.257  0.550  0.080-   449 2.68   349 2.75   342 2.76   384 2.76   352 2.78   392 2.78    86 2.80   403 2.80
                             395 2.83   389 2.84   432 3.16
   383  0.081  0.500  0.081-   421 2.66    85 2.76   381 2.76   393 2.77    55 2.77   351 2.77   113 2.77    87 2.80
                             391 2.80   353 2.83
   384  0.331  0.500  0.081-   422 2.66    86 2.76   382 2.76   394 2.77    56 2.77   352 2.77   114 2.77    88 2.80
                             392 2.80   354 2.83
   385  0.033  0.950  0.080-   435 2.68   345 2.75    41 2.76    83 2.76   355 2.78   387 2.78    81 2.80  1016 2.80
                             696 2.83   417 2.84   441 3.16
   386  0.283  0.950  0.080-   436 2.68   346 2.75    42 2.76    84 2.76   356 2.78   388 2.78    82 2.80   415 2.80
                              95 2.83   418 2.84   442 3.16
   387  0.107  0.900  0.081-   419 2.72   413 2.75   355 2.77   347 2.77   385 2.78    83 2.80   373 2.80   405 2.85
                             441 2.85   445 2.88   417 2.90
   388  0.357  0.900  0.081-   420 2.72   414 2.75   356 2.77   348 2.77   386 2.78    84 2.80   374 2.80   406 2.85
                             442 2.85   446 2.88   418 2.90
   389  0.229  0.651  0.082-  1253 2.11   357 2.74   397 2.76   403 2.78   349 2.78   411 2.79   400 2.81   382 2.84
                             432 2.87   360 2.89   392 2.90   443 3.23   425 3.32
   390  0.479  0.651  0.082-  1254 2.11   358 2.74   398 2.76   404 2.78   350 2.78   412 2.79   999 2.81   981 2.84
                            1031 2.87   959 2.89   991 2.90   444 3.23   426 3.32
   391  0.057  0.600  0.081-   399 2.72   393 2.75   351 2.77   359 2.77   381 2.78   383 2.80   361 2.80   401 2.85
                             431 2.85   433 2.88   990 2.90
   392  0.307  0.600  0.081-   400 2.72   394 2.75   352 2.77   360 2.77   382 2.78   384 2.80   362 2.80   402 2.85
                             432 2.85   434 2.88   389 2.90
   393  0.131  0.550  0.080-   439 2.68   353 2.73   361 2.74   391 2.75   383 2.77   113 2.78   403 2.80   395 2.83
                             363 2.83   401 2.84   433 3.19
   394  0.381  0.550  0.080-   440 2.68   354 2.73   362 2.74   392 2.75   384 2.77   114 2.78   404 2.80   396 2.83
                             364 2.83   402 2.84   434 3.19
   395  0.207  0.500  0.085-   403 2.74   115 2.74   113 2.83   393 2.83   382 2.83    86 2.83   363 2.86    43 2.86
                             342 2.91   127 3.11   439 3.11   136 3.13   449 3.13
   396  0.457  0.500  0.085-   404 2.74   116 2.74   114 2.83   394 2.83   981 2.83   685 2.83   364 2.86    44 2.86
                             941 2.91   128 3.11   440 3.11   735 3.13   450 3.13
   397  0.206  0.750  0.080-   365 2.73   408 2.73   357 2.74   411 2.76   405 2.76   389 2.76   437 2.77   443 2.79
                             367 2.80   419 2.82   400 2.85
   398  0.456  0.750  0.080-   366 2.73  1007 2.73   358 2.74   412 2.76   406 2.76   390 2.76   438 2.77   444 2.79
                             368 2.80   420 2.82   999 2.85
   399  0.032  0.697  0.082-   391 2.72   359 2.75   407 2.77   401 2.80   990 2.81   409 2.82  1044 2.82   968 2.83
                             369 2.85   998 2.85   447 2.86
   400  0.282  0.697  0.082-   392 2.72   360 2.75   408 2.77   402 2.80   389 2.81   410 2.82   443 2.82   367 2.83
                             370 2.85   397 2.85   448 2.86
   401  0.108  0.651  0.082-  1259 2.11   409 2.76   411 2.76   403 2.78   369 2.79   399 2.80   371 2.81   361 2.82
                             393 2.84   391 2.85   433 2.87   447 3.22   425 3.37
   402  0.358  0.651  0.082-  1260 2.11   410 2.76   412 2.76   404 2.78   370 2.79   400 2.80   372 2.81   362 2.82
                             394 2.84   392 2.85   434 2.87   448 3.22   426 3.37
   403  0.182  0.598  0.081-  1265 2.12   395 2.74   363 2.75   401 2.78   389 2.78   393 2.80   371 2.80   382 2.80
                             349 2.84   411 2.96   425 3.04   439 3.17   449 3.19
   404  0.432  0.598  0.081-  1266 2.12   396 2.74   364 2.75   402 2.78   390 2.78   394 2.80   372 2.80   981 2.80
                             350 2.84   412 2.96   426 3.04   440 3.17   450 3.19
   405  0.183  0.849  0.082-  1257 2.11   397 2.76   408 2.76   415 2.78   365 2.79   419 2.80   375 2.81   373 2.82
                             413 2.84   387 2.85   445 2.87   437 3.22   423 3.37
   406  0.433  0.849  0.082-  1258 2.11   398 2.76  1007 2.76   416 2.78   366 2.79   420 2.80   376 2.81   374 2.82
                             414 2.84   388 2.85   446 2.87   438 3.22   424 3.37
   407  0.007  0.796  0.077-   968 2.62  1024 2.69   976 2.73   998 2.73   377 2.75   409 2.76  1006 2.76   399 2.77
                             417 2.79  1016 2.96
   408  0.257  0.796  0.077-   367 2.62   423 2.69   375 2.73   397 2.73   378 2.75   410 2.76   405 2.76   400 2.77
                             418 2.79   415 2.96
   409  0.081  0.750  0.080-   369 2.73   411 2.73   377 2.74   407 2.76   401 2.76   417 2.76   447 2.77   429 2.79
                             379 2.80   399 2.82   419 2.85
   410  0.331  0.750  0.080-   370 2.73   412 2.73   378 2.74   408 2.76   402 2.76   418 2.76   448 2.77   430 2.79
                             380 2.80   400 2.82   420 2.85
   411  0.155  0.704  0.077-   379 2.62   425 2.69   371 2.73   409 2.73   357 2.75   397 2.76   401 2.76   419 2.77
                             389 2.79   403 2.96
   412  0.405  0.704  0.077-   380 2.62   426 2.69   372 2.73   410 2.73   358 2.75   398 2.76   402 2.76   420 2.77
                             390 2.79   404 2.96
   413  0.156  0.950  0.080-   427 2.68    53 2.73   373 2.74   387 2.75    83 2.77    93 2.78   415 2.80    95 2.83
                             343 2.83   405 2.84   445 3.19
   414  0.406  0.950  0.080-   428 2.68    54 2.73   374 2.74   388 2.75    84 2.77    94 2.78   416 2.80    96 2.83
                             344 2.83   406 2.84   446 3.19
   415  0.231  0.902  0.081-  1269 2.12    95 2.74   343 2.75   405 2.78   418 2.78   413 2.80   375 2.80   386 2.80
                             346 2.84   408 2.96   423 3.04   427 3.17   436 3.19
   416  0.481  0.902  0.081-  1270 2.12    96 2.74   344 2.75   406 2.78  1017 2.78   414 2.80   376 2.80   985 2.80
                             945 2.84  1007 2.96   424 3.04   428 3.17  1035 3.19
   417  0.055  0.849  0.082-  1251 2.11   377 2.74   409 2.76  1016 2.78   345 2.78   407 2.79   419 2.81   385 2.84
                             441 2.87   347 2.89   387 2.90   429 3.23  1024 3.32
   418  0.305  0.849  0.082-  1252 2.11   378 2.74   410 2.76   415 2.78   346 2.78   408 2.79   420 2.81   386 2.84
                             442 2.87   348 2.89   388 2.90   430 3.23   423 3.32
   419  0.131  0.803  0.082-   387 2.72   347 2.75   411 2.77   405 2.80   417 2.81   397 2.82   429 2.82   379 2.83
                             365 2.85   409 2.85   437 2.86
   420  0.381  0.803  0.082-   388 2.72   348 2.75   412 2.77   406 2.80   418 2.81   398 2.82   430 2.82   380 2.83
                             366 2.85   410 2.85   438 2.86
   421  0.082  0.500  0.176-  1213 1.95  1267 1.95  1249 2.11  1255 2.12   383 2.66
   422  0.332  0.500  0.176-  1214 1.95  1268 1.95  1250 2.11  1256 2.12   384 2.66
   423  0.249  0.833  0.166-  1264 1.99  1269 2.01  1252 2.15  1257 2.16   408 2.69   415 3.04   418 3.32   405 3.37

   424  0.499  0.833  0.166-  1359 1.99  1270 2.01  1347 2.15  1258 2.16  1007 2.69   416 3.04  1017 3.32   406 3.37

   425  0.166  0.667  0.166-  1271 1.99  1265 2.01  1253 2.15  1259 2.16   411 2.69   403 3.04   389 3.32   401 3.37

   426  0.416  0.667  0.166-  1272 1.99  1266 2.01  1254 2.15  1260 2.16   412 2.69   404 3.04   390 3.32   402 3.37

   427  0.181  0.950  0.169-  1201 1.95  1269 1.99   445 2.60   413 2.68   139 2.78   436 2.97    95 3.11   415 3.17

   428  0.431  0.950  0.169-  1202 1.95  1270 1.99   446 2.60   414 2.68   140 2.78  1035 2.97    96 3.11   416 3.17

   429  0.100  0.781  0.167-  1271 1.95  1251 2.00   447 2.64   409 2.79   419 2.82   437 2.85   441 2.99   417 3.23

[...]
     40.50475     21.83365     18.66841        -0.134683      0.463186      0.058290
     25.96961     17.11250     18.70389         0.004517      0.513833     -0.017682
     35.65523     17.11250     18.70389         0.004517      0.513833     -0.017682
     28.82888     17.11762     18.74222        -0.052658      0.495055     -0.049688
     38.51451     17.11762     18.74222        -0.052658      0.495055     -0.049688
     28.87698     26.56896     18.74397        -0.264067     -0.098484      0.140735
     38.56261     26.56896     18.74397        -0.264067     -0.098484      0.140735
     33.67393     21.83875     18.68223         0.112723      0.444914      0.017548
     43.35956     21.83875     18.68223         0.112723      0.444914      0.017548
     30.75019     15.37204     18.74227         0.282668      0.055059      0.124662
     40.43582     15.37204     18.74227         0.282668      0.055059      0.124662
     30.81243     24.82750     18.70389         0.008628     -0.495808     -0.016953
     40.49805     24.82750     18.70389         0.008628     -0.495808     -0.016953
     35.66194     20.10635     18.66841        -0.136071     -0.459402      0.062244
     45.34757     20.10635     18.66841        -0.136071     -0.459402      0.062244
     33.67169     24.82239     18.74222        -0.052189     -0.490944     -0.045520
     43.35732     24.82239     18.74222        -0.052189     -0.490944     -0.045520
     28.83112     20.10126     18.68223         0.115902     -0.449185      0.024971
     38.51675     20.10126     18.68223         0.115902     -0.449185      0.024971
     33.71980     15.37105     18.74397        -0.260706      0.092691      0.145158
     43.40543     15.37105     18.74397        -0.260706      0.092691      0.145158
      5.27362      0.00000      5.25562        -0.972991     -0.000995     -0.176052
     14.95925      0.00000      5.25562        -0.972991     -0.000995     -0.176052
      5.32715      9.35894      4.35907        -0.721903     -0.093811      0.320954
     15.01278      9.35894      4.35907        -0.721903     -0.093811      0.320954
     10.16996      4.62106      4.35907        -0.720873      0.091098      0.312963
     19.85559      4.62106      4.35907        -0.720873      0.091098      0.312963
      1.08824      0.00000      5.24786         0.943918      0.002375     -0.163622
     10.77387      0.00000      5.24786         0.943918      0.002375     -0.163622
     10.73485      9.36280      4.36174         0.772251     -0.053393      0.308617
     20.42047      9.36280      4.36174         0.772251     -0.053393      0.308617
      5.89204      4.61720      4.36174         0.764857      0.054440      0.311353
     15.57766      4.61720      4.36174         0.764857      0.054440      0.311353
      8.02377     12.05017      5.21214        -0.010967      0.186760      0.160919
     17.70940     12.05017      5.21214        -0.010967      0.186760      0.160919
      3.19137      7.38006      5.09198         0.000512      0.477018      0.203158
     12.87700      7.38006      5.09198         0.000512      0.477018      0.203158
      8.02284      2.66929      4.40241         0.002702      0.070693     -0.252320
     17.70847      2.66929      4.40241         0.002702      0.070693     -0.252320
      3.18096      1.92984      5.21214        -0.010473     -0.190599      0.168252
     12.86659      1.92984      5.21214        -0.010473     -0.190599      0.168252
     12.86565     11.31071      4.40241        -0.002712     -0.073670     -0.254070
     22.55128     11.31071      4.40241        -0.002712     -0.073670     -0.254070
      8.03418      6.59994      5.09198        -0.008683     -0.477983      0.203356
     17.72000      6.59994      5.09198        -0.008683     -0.477983      0.203356
      5.27362      0.00000     19.25562        -0.972991     -0.000995     -0.176052
     14.95925      0.00000     19.25562        -0.972991     -0.000995     -0.176052
      5.32715      9.35894     18.35907        -0.721903     -0.093811      0.320954
     15.01278      9.35894     18.35907        -0.721903     -0.093811      0.320954
     10.16996      4.62106     18.35907        -0.720873      0.091098      0.312963
     19.85559      4.62106     18.35907        -0.720873      0.091098      0.312963
      1.08824      0.00000     19.24786         0.943918      0.002375     -0.163622
     10.77387      0.00000     19.24786         0.943918      0.002375     -0.163622
     10.73485      9.36280     18.36174         0.772251     -0.053393      0.308617
     20.42047      9.36280     18.36174         0.772251     -0.053393      0.308617
      5.89204      4.61720     18.36174         0.764857      0.054440      0.311353
     15.57766      4.61720     18.36174         0.764857      0.054440      0.311353
      8.02377     12.05017     19.21214        -0.010967      0.186760      0.160919
     17.70940     12.05017     19.21214        -0.010967      0.186760      0.160919
      3.19137      7.38006     19.09198         0.000512      0.477018      0.203158
     12.87700      7.38006     19.09198         0.000512      0.477018      0.203158
      8.02284      2.66929     18.40241         0.002702      0.070693     -0.252320
     17.70847      2.66929     18.40241         0.002702      0.070693     -0.252320
      3.18096      1.92984     19.21214        -0.010473     -0.190599      0.168252
     12.86659      1.92984     19.21214        -0.010473     -0.190599      0.168252
     12.86565     11.31071     18.40241        -0.002712     -0.073670     -0.254070
     22.55128     11.31071     18.40241        -0.002712     -0.073670     -0.254070
      8.03418      6.59994     19.09198        -0.008683     -0.477983      0.203356
     17.72000      6.59994     19.09198        -0.008683     -0.477983      0.203356
     10.11643     13.98000      5.25562        -0.972991     -0.000995     -0.176052
     19.80206     13.98000      5.25562        -0.972991     -0.000995     -0.176052
     10.16997     23.33894      4.35907        -0.721903     -0.093811      0.320954
     19.85560     23.33894      4.35907        -0.721903     -0.093811      0.320954
     15.01278     18.60106      4.35907        -0.720873      0.091098      0.312963
     24.69841     18.60106      4.35907        -0.720873      0.091098      0.312963
      5.93105     13.98000      5.24786         0.943918      0.002375     -0.163622
     15.61668     13.98000      5.24786         0.943918      0.002375     -0.163622
     15.57766     23.34280      4.36174         0.772251     -0.053393      0.308617
     25.26329     23.34280      4.36174         0.772251     -0.053393      0.308617
     10.73485     18.59720      4.36174         0.764857      0.054440      0.311353
     20.42048     18.59720      4.36174         0.764857      0.054440      0.311353
     12.86659     26.03017      5.21214        -0.010967      0.186760      0.160919
     22.55221     26.03017      5.21214        -0.010967      0.186760      0.160919
      8.03419     21.36006      5.09198         0.000512      0.477018      0.203158
     17.71981     21.36006      5.09198         0.000512      0.477018      0.203158
     12.86566     16.64929      4.40241         0.002702      0.070693     -0.252320
     22.55128     16.64929      4.40241         0.002702      0.070693     -0.252320
      8.02378     15.90984      5.21214        -0.010473     -0.190599      0.168252
     17.70940     15.90984      5.21214        -0.010473     -0.190599      0.168252
     17.70847     25.29071      4.40241        -0.002712     -0.073670     -0.254070
     27.39409     25.29071      4.40241        -0.002712     -0.073670     -0.254070
     12.87700     20.57994      5.09198        -0.008683     -0.477983      0.203356
     22.56281     20.57994      5.09198        -0.008683     -0.477983      0.203356
     10.11643     13.98000     19.25562        -0.972991     -0.000995     -0.176052
     19.80206     13.98000     19.25562        -0.972991     -0.000995     -0.176052
     10.16997     23.33894     18.35907        -0.721903     -0.093811      0.320954
     19.85560     23.33894     18.35907        -0.721903     -0.093811      0.320954
     15.01278     18.60106     18.35907        -0.720873      0.091098      0.312963
     24.69841     18.60106     18.35907        -0.720873      0.091098      0.312963
      5.93105     13.98000     19.24786         0.943918      0.002375     -0.163622
     15.61668     13.98000     19.24786         0.943918      0.002375     -0.163622
     15.57766     23.34280     18.36174         0.772251     -0.053393      0.308617
     25.26329     23.34280     18.36174         0.772251     -0.053393      0.308617
     10.73485     18.59720     18.36174         0.764857      0.054440      0.311353
     20.42048     18.59720     18.36174         0.764857      0.054440      0.311353
     12.86659     26.03017     19.21214        -0.010967      0.186760      0.160919
     22.55221     26.03017     19.21214        -0.010967      0.186760      0.160919
      8.03419     21.36006     19.09198         0.000512      0.477018      0.203158
     17.71981     21.36006     19.09198         0.000512      0.477018      0.203158
     12.86566     16.64929     18.40241         0.002702      0.070693     -0.252320
     22.55128     16.64929     18.40241         0.002702      0.070693     -0.252320
      8.02378     15.90984     19.21214        -0.010473     -0.190599      0.168252
     17.70940     15.90984     19.21214        -0.010473     -0.190599      0.168252
     17.70847     25.29071     18.40241        -0.002712     -0.073670     -0.254070
     27.39409     25.29071     18.40241        -0.002712     -0.073670     -0.254070
     12.87700     20.57994     19.09198        -0.008683     -0.477983      0.203356
     22.56281     20.57994     19.09198        -0.008683     -0.477983      0.203356
     24.64487      0.00000      5.25562        -0.972991     -0.000995     -0.176052
     34.33050      0.00000      5.25562        -0.972991     -0.000995     -0.176052
     24.69841      9.35894      4.35907        -0.721903     -0.093811      0.320954
     34.38404      9.35894      4.35907        -0.721903     -0.093811      0.320954
     29.54122      4.62106      4.35907        -0.720873      0.091098      0.312963
     39.22685      4.62106      4.35907        -0.720873      0.091098      0.312963
     20.45949      0.00000      5.24786         0.943918      0.002375     -0.163622
     30.14512      0.00000      5.24786         0.943918      0.002375     -0.163622
     30.10610      9.36280      4.36174         0.772251     -0.053393      0.308617
     39.79173      9.36280      4.36174         0.772251     -0.053393      0.308617
     25.26329      4.61720      4.36174         0.764857      0.054440      0.311353
     34.94892      4.61720      4.36174         0.764857      0.054440      0.311353
     27.39503     12.05017      5.21214        -0.010967      0.186760      0.160919
     37.08066     12.05017      5.21214        -0.010967      0.186760      0.160919
     22.56263      7.38006      5.09198         0.000512      0.477018      0.203158
     32.24826      7.38006      5.09198         0.000512      0.477018      0.203158
     27.39410      2.66929      4.40241         0.002702      0.070693     -0.252320
     37.07973      2.66929      4.40241         0.002702      0.070693     -0.252320
     22.55222      1.92984      5.21214        -0.010473     -0.190599      0.168252
     32.23785      1.92984      5.21214        -0.010473     -0.190599      0.168252
     32.23691     11.31071      4.40241        -0.002712     -0.073670     -0.254070
     41.92254     11.31071      4.40241        -0.002712     -0.073670     -0.254070
     27.40544      6.59994      5.09198        -0.008683     -0.477983      0.203356
     37.09126      6.59994      5.09198        -0.008683     -0.477983      0.203356
     24.64487      0.00000     19.25562        -0.972991     -0.000995     -0.176052
     34.33050      0.00000     19.25562        -0.972991     -0.000995     -0.176052
     24.69841      9.35894     18.35907        -0.721903     -0.093811      0.320954
     34.38404      9.35894     18.35907        -0.721903     -0.093811      0.320954
     29.54122      4.62106     18.35907        -0.720873      0.091098      0.312963
     39.22685      4.62106     18.35907        -0.720873      0.091098      0.312963
     20.45949      0.00000     19.24786         0.943918      0.002375     -0.163622
     30.14512      0.00000     19.24786         0.943918      0.002375     -0.163622
     30.10610      9.36280     18.36174         0.772251     -0.053393      0.308617
     39.79173      9.36280     18.36174         0.772251     -0.053393      0.308617
     25.26329      4.61720     18.36174         0.764857      0.054440      0.311353
     34.94892      4.61720     18.36174         0.764857      0.054440      0.311353
     27.39503     12.05017     19.21214        -0.010967      0.186760      0.160919
     37.08066     12.05017     19.21214        -0.010967      0.186760      0.160919
     22.56263      7.38006     19.09198         0.000512      0.477018      0.203158
     32.24826      7.38006     19.09198         0.000512      0.477018      0.203158
     27.39410      2.66929     18.40241         0.002702      0.070693     -0.252320
     37.07973      2.66929     18.40241         0.002702      0.070693     -0.252320
     22.55222      1.92984     19.21214        -0.010473     -0.190599      0.168252
     32.23785      1.92984     19.21214        -0.010473     -0.190599      0.168252
     32.23691     11.31071     18.40241        -0.002712     -0.073670     -0.254070
     41.92254     11.31071     18.40241        -0.002712     -0.073670     -0.254070
     27.40544      6.59994     19.09198        -0.008683     -0.477983      0.203356
     37.09126      6.59994     19.09198        -0.008683     -0.477983      0.203356
     29.48769     13.98000      5.25562        -0.972991     -0.000995     -0.176052
     39.17332     13.98000      5.25562        -0.972991     -0.000995     -0.176052
     29.54122     23.33894      4.35907        -0.721903     -0.093811      0.320954
     39.22685     23.33894      4.35907        -0.721903     -0.093811      0.320954
     34.38403     18.60106      4.35907        -0.720873      0.091098      0.312963
     44.06966     18.60106      4.35907        -0.720873      0.091098      0.312963
     25.30231     13.98000      5.24786         0.943918      0.002375     -0.163622
     34.98794     13.98000      5.24786         0.943918      0.002375     -0.163622
     34.94892     23.34280      4.36174         0.772251     -0.053393      0.308617
     44.63454     23.34280      4.36174         0.772251     -0.053393      0.308617
     30.10611     18.59720      4.36174         0.764857      0.054440      0.311353
     39.79173     18.59720      4.36174         0.764857      0.054440      0.311353
     32.23784     26.03017      5.21214        -0.010967      0.186760      0.160919
     41.92347     26.03017      5.21214        -0.010967      0.186760      0.160919
     27.40544     21.36006      5.09198         0.000512      0.477018      0.203158
     37.09107     21.36006      5.09198         0.000512      0.477018      0.203158
     32.23691     16.64929      4.40241         0.002702      0.070693     -0.252320
     41.92254     16.64929      4.40241         0.002702      0.070693     -0.252320
     27.39503     15.90984      5.21214        -0.010473     -0.190599      0.168252
     37.08066     15.90984      5.21214        -0.010473     -0.190599      0.168252
     37.07972     25.29071      4.40241        -0.002712     -0.073670     -0.254070
     46.76535     25.29071      4.40241        -0.002712     -0.073670     -0.254070
     32.24825     20.57994      5.09198        -0.008683     -0.477983      0.203356
     41.93407     20.57994      5.09198        -0.008683     -0.477983      0.203356
     29.48769     13.98000     19.25562        -0.972991     -0.000995     -0.176052
     39.17332     13.98000     19.25562        -0.972991     -0.000995     -0.176052
     29.54122     23.33894     18.35907        -0.721903     -0.093811      0.320954
     39.22685     23.33894     18.35907        -0.721903     -0.093811      0.320954
     34.38403     18.60106     18.35907        -0.720873      0.091098      0.312963
     44.06966     18.60106     18.35907        -0.720873      0.091098      0.312963
     25.30231     13.98000     19.24786         0.943918      0.002375     -0.163622
     34.98794     13.98000     19.24786         0.943918      0.002375     -0.163622
     34.94892     23.34280     18.36174         0.772251     -0.053393      0.308617
     44.63454     23.34280     18.36174         0.772251     -0.053393      0.308617
     30.10611     18.59720     18.36174         0.764857      0.054440      0.311353
     39.79173     18.59720     18.36174         0.764857      0.054440      0.311353
     32.23784     26.03017     19.21214        -0.010967      0.186760      0.160919
     41.92347     26.03017     19.21214        -0.010967      0.186760      0.160919
     27.40544     21.36006     19.09198         0.000512      0.477018      0.203158
     37.09107     21.36006     19.09198         0.000512      0.477018      0.203158
     32.23691     16.64929     18.40241         0.002702      0.070693     -0.252320
     41.92254     16.64929     18.40241         0.002702      0.070693     -0.252320
     27.39503     15.90984     19.21214        -0.010473     -0.190599      0.168252
     37.08066     15.90984     19.21214        -0.010473     -0.190599      0.168252
     37.07972     25.29071     18.40241        -0.002712     -0.073670     -0.254070
     46.76535     25.29071     18.40241        -0.002712     -0.073670     -0.254070
     32.24825     20.57994     19.09198        -0.008683     -0.477983      0.203356
     41.93407     20.57994     19.09198        -0.008683     -0.477983      0.203356
 -----------------------------------------------------------------------------------
    total drift:                               -3.130645     -0.079687     14.702863


--------------------------------------------------------------------------------------------------------



  FREE ENERGIE OF THE ION-ELECTRON SYSTEM (eV)
  ---------------------------------------------------
  free  energy   TOTEN  =     -7617.60744058 eV

  energy  without entropy=    -7614.18870568  energy(sigma->0) =    -7615.89807313
 


--------------------------------------------------------------------------------------------------------


    POTLOK:  cpu time    0.2040: real time    0.2041


--------------------------------------------------------------------------------------------------------


     LOOP+:  cpu time  263.9631: real time  264.0966
    4ORBIT:  cpu time    0.0000: real time    0.0000

 total amount of memory used by VASP MPI-rank0    74898. kBytes
=======================================================================

   base      :      30000. kBytes
   nonlr-proj:       7487. kBytes
   fftplans  :       2860. kBytes
   grid      :       5003. kBytes
   one-center:        272. kBytes
   wavefun   :      29276. kBytes
 
  
  
 General timing and accounting informations for this job:
 ========================================================
  
                  Total CPU time used (sec):      344.112
                            User time (sec):      340.957
                          System time (sec):        3.156
                         Elapsed time (sec):      344.510
  
                   Maximum memory used (kb):      209204.
                   Average memory used (kb):           0.
  
                          Minor page faults:        85614
                          Major page faults:          183
                 Voluntary context switches:         1526
