 vasp.5.4.4.18Apr17-6-g9f103f2a35 (build Aug 24 2018 09:21:03) complex           
 executed on bdw_gcc-7.3_libsci-1 date 2018.08.24  09:22:01
 running on   44 total cores
 distrk:  each k-point on   44 cores,    1 groups
 distr:  one band on NCORES_PER_BAND=   4 cores,   11 groups


--------------------------------------------------------------------------------------------------------


 INCAR:
 POTCAR:    PAW Pd                                
 POTCAR:  PAW O_s                                 
 POTCAR:    PAW Pd                                
   VRHFIN =Pd : s1 d9                                                           
   LEXCH  = 91                                                                  
   EATOM  =   810.7745 eV,   59.5902 Ry                                         
                                                                                
   TITEL  = PAW Pd                                                              
   LULTRA =        F    use ultrasoft PP ?                                      
   IUNSCR =        1    unscreen: 0-lin 1-nonlin 2-no                           
   RPACOR =    2.000    partial core radius                                     
   POMASS =  106.420; ZVAL   =   10.000    mass and valenz                      
   RCORE  =    2.400    outmost cutoff radius                                   
   RWIGS  =    2.710; RWIGS  =    1.434    wigner-seitz radius (au A)           
   ENMAX  =  250.918; ENMIN  =  188.188 eV                                      
   RCLOC  =    1.862    cutoff for local pot                                    
   LCOR   =        T    correct aug charges                                     
   LPAW   =        T    paw PP                                                  
   EAUG   =  416.230                                                            
   DEXC   =    -.044                                                            
   RMAX   =    2.911    core radius for proj-oper                               
   RAUG   =    1.300    factor for augmentation sphere                          
   RDEP   =    2.405    core radius for depl-charge                             
   QCUT   =   -4.294; QGAM   =    8.589    optimization parameters              
                                                                                
   Description                                                                  
     l     E      TYP  RCUT    TYP  RCUT                                        
     2   .000     23  2.400                                                     
     2   .000     23  2.400                                                     
     0   .000     23  2.400                                                     
     0   .000     23  2.400                                                     
     1  -.200     23  2.400                                                     
     1   .000     23  2.400                                                     
     3   .000      7   .000                                                     
  local pseudopotential read in
  partial core-charges read in
  atomic valenz-charges read in
  non local Contribution for L=           2  read in
    real space projection operators read in
  non local Contribution for L=           2  read in
    real space projection operators read in
  non local Contribution for L=           0  read in
    real space projection operators read in
  non local Contribution for L=           0  read in
    real space projection operators read in
  non local Contribution for L=           1  read in
    real space projection operators read in
  non local Contribution for L=           1  read in
    real space projection operators read in
    PAW grid and wavefunctions read in

   number of l-projection  operators is LMAX  =           6
   number of lm-projection operators is LMMAX =          18

 POTCAR:  PAW O_s                                 
   VRHFIN =O: s2p4                                                              
   LEXCH  = 91                                                                  
   EATOM  =   433.0277 eV,   31.8266 Ry                                         
                                                                                
   TITEL  = PAW O_s                                                             
   LULTRA =        F    use ultrasoft PP ?                                      
   IUNSCR =        0    unscreen: 0-lin 1-nonlin 2-no                           
   RPACOR =     .000    partial core radius                                     
   POMASS =   60.000; ZVAL   =    6.000    mass and valenz                      
   RCORE  =    1.900    outmost cutoff radius                                   
   RWIGS  =    1.700; RWIGS  =     .900    wigner-seitz radius (au A)           
   ENMAX  =  250.000; ENMIN  =  202.667 eV                                      
   RCLOC  =    1.014    cutoff for local pot                                    
   LCOR   =        T    correct aug charges                                     
   LPAW   =        T    paw PP                                                  
   EAUG   =  412.352                                                            
   DEXC   =     .000                                                            
   RMAX   =    2.805    core radius for proj-oper                               
   RDEP   =    2.002    core radius for depl-charge                             
   QCUT   =   -4.457; QGAM   =    8.913    optimization parameters              
                                                                                
   Description                                                                  
     l     E      TYP  RCUT    TYP  RCUT                                        
     0   .000     23  1.500                                                     
     0   .000     23  1.500                                                     
     1   .000     23  1.900                                                     
     1   .000     23  1.900                                                     
     2   .000      7   .000                                                     
  local pseudopotential read in
  atomic valenz-charges read in
  non local Contribution for L=           0  read in
    real space projection operators read in
  non local Contribution for L=           0  read in
    real space projection operators read in
  non local Contribution for L=           1  read in
    real space projection operators read in
  non local Contribution for L=           1  read in
    real space projection operators read in
    PAW grid and wavefunctions read in

   number of l-projection  operators is LMAX  =           4
   number of lm-projection operators is LMMAX =           8

 Optimization of the real space projectors (new method)

 maximal supplied QI-value         = 15.68
 optimisation between [QCUT,QGAM] = [  8.00, 16.16] = [ 17.92, 73.09] Ry 
 Optimized for a Real-space Cutoff    1.70 Angstroem

   l    n(q)    QCUT    max X(q) W(low)/X(q) W(high)/X(q)  e(spline) 
   2      7     7.999     3.678    0.48E-04    0.12E-03    0.46E-07
   2      7     7.999    27.581    0.45E-03    0.95E-03    0.19E-06
   0      8     7.999    18.529    0.25E-04    0.13E-04    0.59E-08
   0      8     7.999    72.518    0.80E-04    0.44E-04    0.75E-07
   1      8     7.999     7.283    0.85E-04    0.40E-04    0.30E-07
   1      8     7.999     9.762    0.26E-03    0.23E-03    0.96E-07
 Optimization of the real space projectors (new method)

 maximal supplied QI-value         = 19.84
 optimisation between [QCUT,QGAM] = [  7.94, 16.07] = [ 17.64, 72.34] Ry 
 Optimized for a Real-space Cutoff    1.65 Angstroem

   l    n(q)    QCUT    max X(q) W(low)/X(q) W(high)/X(q)  e(spline) 
   0      8     7.937     3.485    0.12E-04    0.35E-04    0.81E-07
   0      8     7.937    30.133    0.36E-03    0.54E-03    0.12E-06
   1      7     7.937     3.755    0.55E-04    0.78E-04    0.14E-06
   1      7     7.937    24.805    0.42E-03    0.58E-04    0.31E-06
  PAW Pd                                :
 energy of atom  1       EATOM= -810.7745
 kinetic energy error for atom=    0.0670 (will be added to EATOM!!)
PAW O_s                                 :
 energy of atom  2       EATOM= -433.0277
 kinetic energy error for atom=    0.1843 (will be added to EATOM!!)


 POSCAR: this is a 5x4 supercell, 3 layer: one la
  positions in cartesian coordinates
  No initial velocities read in
 exchange correlation table for  LEXCH =        7
   RHO(1)=    0.500       N(1)  =     2000
   RHO(2)=  100.500       N(2)  =     4000



--------------------------------------------------------------------------------------------------------


 ion  position               nearest neighbor table
   1  0.083  0.000  0.837-  15 2.80  11 2.80   9 2.80   5 2.80  24 2.80   4 2.80  55 2.80  51 2.80
                            41 2.80
   2  0.583  0.000  0.837-  16 2.80  12 2.80  10 2.80   6 2.80  23 2.80   3 2.80  56 2.80  52 2.80
                            42 2.80
   3  0.483  0.900  0.837-   6 2.80  13 2.80  33 2.80  36 2.80  23 2.80   2 2.80  46 2.80  42 2.80
                            43 2.80
   4  0.983  0.900  0.837-   5 2.80  14 2.80  34 2.80  35 2.80  24 2.80   1 2.80  45 2.80  41 2.80
                            44 2.80
   5  0.133  0.800  0.837-  35 2.80   4 2.80   7 2.80  15 2.80  37 2.80   1 2.80  47 2.80  55 2.80
                            45 2.80
   6  0.633  0.800  0.837-  36 2.80   3 2.80   8 2.80  16 2.80  38 2.80   2 2.80  48 2.80  56 2.80
                            46 2.80
   7  0.283  0.700  0.837-  37 2.80   5 2.80  15 2.80  39 2.80  33 2.80  25 2.80  73 2.80  65 2.80
                            47 2.80
   8  0.783  0.700  0.837-  38 2.80   6 2.80  16 2.80  40 2.80  34 2.80  26 2.80  74 2.80  66 2.80
                            48 2.80
   9  0.033  0.200  0.837-  19 2.80  11 2.80  18 2.80   1 2.80  24 2.80  32 2.80  59 2.80  51 2.80
                            50 2.80
  10  0.533  0.200  0.837-  20 2.80  12 2.80  17 2.80   2 2.80  23 2.80  31 2.80  60 2.80  52 2.80
                            49 2.80
  11  0.183  0.100  0.837-   9 2.80   1 2.80  13 2.80  21 2.80  19 2.80  15 2.80  53 2.80  61 2.80
                            51 2.80
  12  0.683  0.100  0.837-  10 2.80   2 2.80  14 2.80  22 2.80  20 2.80  16 2.80  54 2.80  62 2.80
                            52 2.80
  13  0.333  0.000  0.837-   3 2.80  11 2.80  23 2.80  21 2.80  33 2.80  15 2.80  43 2.80  63 2.80
                            53 2.80
  14  0.833  0.000  0.837-   4 2.80  12 2.80  24 2.80  22 2.80  34 2.80  16 2.80  44 2.80  64 2.80
                            54 2.80
  15  0.233  0.900  0.837-   1 2.80   5 2.80   7 2.80  11 2.80  33 2.80  13 2.80  73 2.80  53 2.80
                            55 2.80
  16  0.733  0.900  0.837-   2 2.80   6 2.80   8 2.80  12 2.80  34 2.80  14 2.80  74 2.80  54 2.80
                            56 2.80
  17  0.483  0.400  0.837-  20 2.80  28 2.80  10 2.80  25 2.80  39 2.80  31 2.80  60 2.80  67 2.80
                            57 2.80
  18  0.983  0.400  0.837-  19 2.80  27 2.80   9 2.80  26 2.80  40 2.80  32 2.80  59 2.80  68 2.80
                            58 2.80
  19  0.133  0.300  0.837-   9 2.80  21 2.80  18 2.80  29 2.80  11 2.80  27 2.80  61 2.80  69 2.80
                            59 2.80
  20  0.633  0.300  0.837-  10 2.80  22 2.80  17 2.80  30 2.80  12 2.80  28 2.80  62 2.80  70 2.80
                            60 2.80
  21  0.283  0.200  0.837-  31 2.80  19 2.80  23 2.80  11 2.80  29 2.80  13 2.80  71 2.80  63 2.80
                            61 2.80
  22  0.783  0.200  0.837-  32 2.80  20 2.80  24 2.80  12 2.80  30 2.80  14 2.80  72 2.80  64 2.80
                            62 2.80
  23  0.433  0.100  0.837-  21 2.80  13 2.80  31 2.80   3 2.80   2 2.80  10 2.80  42 2.80  49 2.80
                            63 2.80
  24  0.933  0.100  0.837-  22 2.80  14 2.80  32 2.80   4 2.80   1 2.80   9 2.80  41 2.80  50 2.80
                            64 2.80
  25  0.433  0.600  0.837-  28 2.80  36 2.80  33 2.80  17 2.80   7 2.80  39 2.80  67 2.80  75 2.80
                            65 2.80
  26  0.933  0.600  0.837-  27 2.80  35 2.80  34 2.80  18 2.80   8 2.80  40 2.80  68 2.80  76 2.80
                            66 2.80
  27  0.083  0.500  0.837-  26 2.80  29 2.80  18 2.80  37 2.80  35 2.80  19 2.80  69 2.80  77 2.80
                            68 2.80
  28  0.583  0.500  0.837-  25 2.80  30 2.80  17 2.80  38 2.80  36 2.80  20 2.80  70 2.80  78 2.80
                            67 2.80
  29  0.233  0.400  0.837-  31 2.80  39 2.80  27 2.80  19 2.80  21 2.80  37 2.80  71 2.80  79 2.80
                            69 2.80
  30  0.733  0.400  0.837-  32 2.80  40 2.80  28 2.80  20 2.80  22 2.80  38 2.80  72 2.80  80 2.80
                            70 2.80
  31  0.383  0.300  0.837-  21 2.80  29 2.80  23 2.80  39 2.80  17 2.80  10 2.80  49 2.80  57 2.80
                            71 2.80
  32  0.883  0.300  0.837-  22 2.80  30 2.80  24 2.80  40 2.80  18 2.80   9 2.80  50 2.80  58 2.80
                            72 2.80
  33  0.383  0.800  0.837-  36 2.80   3 2.80  25 2.80  13 2.80   7 2.80  15 2.80  75 2.80  43 2.80
                            73 2.80
  34  0.883  0.800  0.837-  35 2.80   4 2.80  26 2.80  14 2.80   8 2.80  16 2.80  76 2.80  44 2.80
                            74 2.80
  35  0.033  0.700  0.837-   5 2.80  34 2.80  37 2.80  26 2.80   4 2.80  27 2.80  45 2.80  77 2.80
                            76 2.80
  36  0.533  0.700  0.837-   6 2.80  33 2.80  38 2.80  25 2.80   3 2.80  28 2.80  46 2.80  78 2.80
                            75 2.80
  37  0.183  0.600  0.837-  39 2.80   7 2.80  35 2.80  27 2.80   5 2.80  29 2.80  79 2.80  47 2.80
                            77 2.80
  38  0.683  0.600  0.837-  40 2.80   8 2.80  36 2.80  28 2.80   6 2.80  30 2.80  80 2.80  48 2.80
                            78 2.80
  39  0.333  0.500  0.837-  37 2.80  29 2.80  31 2.80   7 2.80  17 2.80  25 2.80  57 2.80  65 2.80
                            79 2.80
  40  0.833  0.500  0.837-  38 2.80  30 2.80  32 2.80   8 2.80  18 2.80  26 2.80  58 2.80  66 2.80
                            80 2.80
  41  0.000  0.000  0.000-  81 2.76  85 2.76  55 2.80  64 2.80  51 2.80  50 2.80  45 2.80  44 2.80
                            24 2.80   4 2.80   1 2.80  96 2.91
  42  0.500  0.000  0.000-  82 2.76  86 2.76  56 2.80  63 2.80  52 2.80  49 2.80  46 2.80  43 2.80
                            23 2.80   3 2.80   2 2.80  95 2.91
  43  0.400  0.900  0.000- 115 2.75  53 2.80  73 2.80  75 2.80  63 2.80  46 2.80  42 2.80  13 2.80
                            33 2.80   3 2.80 113 2.83  95 2.86
  44  0.900  0.900  0.000- 116 2.75  54 2.80  74 2.80  76 2.80  64 2.80  45 2.80  41 2.80  14 2.80
                            34 2.80   4 2.80 114 2.83  96 2.86
  45  0.050  0.800  0.000-  85 2.75 117 2.78  47 2.80  55 2.80  77 2.80  41 2.80  76 2.80  44 2.80
                            35 2.80   4 2.80   5 2.80 116 2.84
  46  0.550  0.800  0.000-  86 2.75 118 2.78  48 2.80  56 2.80  78 2.80  42 2.80  75 2.80  43 2.80
                            36 2.80   3 2.80   6 2.80 115 2.84
  47  0.200  0.700  0.000- 119 2.75  87 2.77  73 2.80  45 2.80  65 2.80  77 2.80  55 2.80  79 2.80
                             5 2.80  37 2.80   7 2.80 117 2.89
  48  0.700  0.700  0.000- 120 2.75  88 2.77  74 2.80  46 2.80  66 2.80  78 2.80  56 2.80  80 2.80
                             6 2.80  38 2.80   8 2.80 118 2.89
  49  0.450  0.200  0.000-  82 2.75  89 2.78  60 2.80  71 2.80  52 2.80  63 2.80  57 2.80  42 2.80
                            31 2.80  23 2.80  10 2.80 103 2.84
  50  0.950  0.200  0.000-  81 2.75  90 2.78  59 2.80  72 2.80  51 2.80  64 2.80  58 2.80  41 2.80
                            32 2.80  24 2.80   9 2.80 104 2.84
  51  0.100  0.100  0.000-  91 2.77  83 2.77  81 2.78  50 2.80  41 2.80  59 2.80  55 2.80  53 2.80
                            61 2.80   9 2.80   1 2.80  11 2.80
  52  0.600  0.100  0.000-  92 2.77  84 2.77  82 2.78  49 2.80  42 2.80  60 2.80  56 2.80  54 2.80
                            62 2.80  10 2.80   2 2.80  12 2.80
  53  0.250  0.000  0.000-  93 2.73 113 2.73  43 2.80  63 2.80  61 2.80  73 2.80  51 2.80  55 2.80
                            11 2.80  15 2.80  13 2.80  83 2.83
  54  0.750  0.000  0.000-  94 2.73 114 2.73  44 2.80  64 2.80  62 2.80  74 2.80  52 2.80  56 2.80
                            12 2.80  16 2.80  14 2.80  84 2.83
  55  0.150  0.900  0.000-  87 2.77  83 2.77  85 2.78  73 2.80  41 2.80  45 2.80  47 2.80  51 2.80
                            53 2.80   1 2.80   5 2.80  15 2.80
  56  0.650  0.900  0.000-  88 2.77  84 2.77  86 2.78  74 2.80  42 2.80  46 2.80  48 2.80  52 2.80
                            54 2.80   2 2.80   6 2.80  16 2.80
  57  0.400  0.400  0.000-  97 2.74  89 2.74 111 2.75  60 2.80  67 2.80  79 2.80  71 2.80  49 2.80
                            65 2.80  39 2.80  31 2.80  17 2.80
  58  0.900  0.400  0.000-  98 2.74  90 2.74 112 2.75  59 2.80  68 2.80  80 2.80  72 2.80  50 2.80
                            66 2.80  40 2.80  32 2.80  18 2.80
  59  0.050  0.300  0.000-  99 2.75  91 2.77  50 2.80  58 2.80  51 2.80  68 2.80  69 2.80  61 2.80
                             9 2.80  18 2.80  19 2.80  90 2.89
  60  0.550  0.300  0.000- 100 2.75  92 2.77  49 2.80  57 2.80  52 2.80  67 2.80  70 2.80  62 2.80
                            10 2.80  17 2.80  20 2.80  89 2.89
  61  0.200  0.200  0.000-  93 2.74  71 2.80  63 2.80  69 2.80  53 2.80  51 2.80  59 2.80  19 2.80
                            11 2.80  21 2.80  91 2.80 101 2.82
  62  0.700  0.200  0.000-  94 2.74  72 2.80  64 2.80  70 2.80  54 2.80  52 2.80  60 2.80  20 2.80
                            12 2.80  22 2.80  92 2.80 102 2.82
  63  0.350  0.100  0.000- 103 2.75  61 2.80  53 2.80  42 2.80  49 2.80  71 2.80  43 2.80  21 2.80
                            13 2.80  23 2.80  93 2.83  95 2.86
  64  0.850  0.100  0.000- 104 2.75  62 2.80  54 2.80  41 2.80  50 2.80  72 2.80  44 2.80  22 2.80
                            14 2.80  24 2.80  94 2.83  96 2.86
  65  0.350  0.600  0.000-  97 2.73 105 2.79  67 2.80  75 2.80  47 2.80  79 2.80  73 2.80  57 2.80
                             7 2.80  39 2.80  25 2.80 119 2.85
  66  0.850  0.600  0.000-  98 2.73 106 2.79  68 2.80  76 2.80  48 2.80  80 2.80  74 2.80  58 2.80
                             8 2.80  40 2.80  26 2.80 120 2.85
  67  0.500  0.500  0.000- 108 2.62  65 2.80  57 2.80  75 2.80  60 2.80  70 2.80  78 2.80  25 2.80
                            17 2.80  28 2.80  97 2.80 100 2.83
  68  1.000  0.500  0.000- 107 2.62  66 2.80  58 2.80  76 2.80  59 2.80  69 2.80  77 2.80  26 2.80
                            18 2.80  27 2.80  98 2.80  99 2.83
  69  0.150  0.400  0.000- 109 2.73 101 2.79  71 2.80  79 2.80  61 2.80  77 2.80  68 2.80  59 2.80
                            27 2.80  19 2.80  29 2.80  99 2.85
  70  0.650  0.400  0.000- 110 2.73 102 2.79  72 2.80  80 2.80  62 2.80  78 2.80  67 2.80  60 2.80
                            28 2.80  20 2.80  30 2.80 100 2.85
  71  0.300  0.300  0.000- 111 2.73  61 2.80  49 2.80  69 2.80  57 2.80  63 2.80  79 2.80  21 2.80
                            29 2.80  31 2.80 103 2.80 101 2.81
  72  0.800  0.300  0.000- 112 2.73  62 2.80  50 2.80  70 2.80  58 2.80  64 2.80  80 2.80  22 2.80
                            30 2.80  32 2.80 104 2.80 102 2.81
  73  0.300  0.800  0.000- 113 2.74  47 2.80  55 2.80  75 2.80  43 2.80  65 2.80  53 2.80   7 2.80
                            15 2.80  33 2.80  87 2.80 105 2.82
  74  0.800  0.800  0.000- 114 2.74  48 2.80  56 2.80  76 2.80  44 2.80  66 2.80  54 2.80   8 2.80
                            16 2.80  34 2.80  88 2.80 106 2.82
  75  0.450  0.700  0.000- 108 2.73  65 2.80  73 2.80  43 2.80  67 2.80  46 2.80  78 2.80  33 2.80
                            25 2.80  36 2.80 115 2.80 105 2.81
  76  0.950  0.700  0.000- 107 2.73  66 2.80  74 2.80  44 2.80  68 2.80  45 2.80  77 2.80  34 2.80
                            26 2.80  35 2.80 116 2.80 106 2.81
  77  0.100  0.600  0.000- 109 2.74 117 2.74 107 2.75  79 2.80  47 2.80  45 2.80  69 2.80  76 2.80
                            68 2.80  35 2.80  27 2.80  37 2.80
  78  0.600  0.600  0.000- 110 2.74 118 2.74 108 2.75  80 2.80  48 2.80  46 2.80  70 2.80  75 2.80
                            67 2.80  36 2.80  28 2.80  38 2.80
  79  0.250  0.500  0.000- 111 2.62  77 2.80  57 2.80  65 2.80  69 2.80  47 2.80  71 2.80  37 2.80
                            29 2.80  39 2.80 109 2.80 119 2.83
  80  0.750  0.500  0.000- 112 2.62  78 2.80  58 2.80  66 2.80  70 2.80  48 2.80  72 2.80  38 2.80
                            30 2.80  40 2.80 110 2.80 120 2.83
  81  0.015  0.100  0.160- 150 2.68  50 2.75  41 2.76  83 2.76  51 2.78  91 2.78  85 2.80 104 2.80
                            96 2.83  90 2.84 131 3.16
  82  0.515  0.100  0.160- 149 2.68  49 2.75  42 2.76  84 2.76  52 2.78  92 2.78  86 2.80 103 2.80
                            95 2.83  89 2.84 132 3.16
  83  0.163  0.000  0.162- 121 2.66  85 2.76  81 2.76  93 2.77  51 2.77  55 2.77 113 2.77  87 2.80
                            91 2.80  53 2.83
  84  0.663  0.000  0.162- 122 2.66  86 2.76  82 2.76  94 2.77  52 2.77  56 2.77 114 2.77  88 2.80
                            92 2.80  54 2.83
  85  0.065  0.900  0.160- 135 2.68  45 2.75  41 2.76  83 2.76  55 2.78  87 2.78  81 2.80 116 2.80
                            96 2.83 117 2.84 141 3.16
  86  0.565  0.900  0.160- 136 2.68  46 2.75  42 2.76  84 2.76  56 2.78  88 2.78  82 2.80 115 2.80
                            95 2.83 118 2.84 142 3.16
  87  0.214  0.800  0.161- 119 2.72 113 2.75  55 2.77  47 2.77  85 2.78  83 2.80  73 2.80 105 2.85
                           141 2.85 145 2.88 117 2.90
  88  0.714  0.800  0.161- 120 2.72 114 2.75  56 2.77  48 2.77  86 2.78  84 2.80  74 2.80 106 2.85
                           142 2.85 146 2.88 118 2.90
  89  0.458  0.303  0.164- 155 2.11  57 2.74  97 2.76 103 2.78  49 2.78 111 2.79 100 2.81  82 2.84
                           132 2.87  60 2.89  92 2.90 143 3.23 125 3.32
  90  0.958  0.303  0.164- 156 2.11  58 2.74  98 2.76 104 2.78  50 2.78 112 2.79  99 2.81  81 2.84
                           131 2.87  59 2.89  91 2.90 144 3.23 126 3.32
  91  0.114  0.200  0.161-  99 2.72  93 2.75  51 2.77  59 2.77  81 2.78  83 2.80  61 2.80 101 2.85
                           131 2.85 133 2.88  90 2.90
  92  0.614  0.200  0.161- 100 2.72  94 2.75  52 2.77  60 2.77  82 2.78  84 2.80  62 2.80 102 2.85
                           132 2.85 134 2.88  89 2.90
  93  0.262  0.099  0.160- 139 2.68  53 2.73  61 2.74  91 2.75  83 2.77 113 2.78 103 2.80  95 2.83
                            63 2.83 101 2.84 133 3.19
  94  0.762  0.099  0.160- 140 2.68  54 2.73  62 2.74  92 2.75  84 2.77 114 2.78 104 2.80  96 2.83
                            64 2.83 102 2.84 134 3.19
  95  0.413  0.000  0.170- 103 2.74 115 2.74 113 2.83  93 2.83  82 2.83  86 2.83  63 2.86  43 2.86
                            42 2.91 127 3.11 139 3.11 136 3.13 149 3.13
  96  0.913  0.000  0.170- 104 2.74 116 2.74 114 2.83  94 2.83  81 2.83  85 2.83  64 2.86  44 2.86
                            41 2.91 128 3.11 140 3.11 135 3.13 150 3.13
  97  0.412  0.500  0.160-  65 2.73 108 2.73  57 2.74 111 2.76 105 2.76  89 2.76 137 2.77 143 2.79
                            67 2.80 119 2.82 100 2.85
  98  0.912  0.500  0.160-  66 2.73 107 2.73  58 2.74 112 2.76 106 2.76  90 2.76 138 2.77 144 2.79
                            68 2.80 120 2.82  99 2.85
  99  0.065  0.394  0.164-  91 2.72  59 2.75 107 2.77 101 2.80  90 2.81 109 2.82 144 2.82  68 2.83
                            69 2.85  98 2.85 147 2.86
 100  0.565  0.394  0.164-  92 2.72  60 2.75 108 2.77 102 2.80  89 2.81 110 2.82 143 2.82  67 2.83
                            70 2.85  97 2.85 148 2.86
 101  0.216  0.302  0.164- 161 2.11 109 2.76 111 2.76 103 2.78  69 2.79  99 2.80  71 2.81  61 2.82
                            93 2.84  91 2.85 133 2.87 147 3.22 125 3.37
 102  0.716  0.302  0.164- 162 2.11 110 2.76 112 2.76 104 2.78  70 2.79 100 2.80  72 2.81  62 2.82
                            94 2.84  92 2.85 134 2.87 148 3.22 126 3.37
 103  0.364  0.196  0.163- 167 2.12  95 2.74  63 2.75 101 2.78  89 2.78  93 2.80  71 2.80  82 2.80
                            49 2.84 111 2.96 125 3.04 139 3.17 149 3.19
 104  0.864  0.196  0.163- 168 2.12  96 2.74  64 2.75 102 2.78  90 2.78  94 2.80  72 2.80  81 2.80
                            50 2.84 112 2.96 126 3.04 140 3.17 150 3.19
 105  0.367  0.698  0.164- 159 2.11  97 2.76 108 2.76 115 2.78  65 2.79 119 2.80  75 2.81  73 2.82
                           113 2.84  87 2.85 145 2.87 137 3.22 123 3.37
 106  0.867  0.698  0.164- 160 2.11  98 2.76 107 2.76 116 2.78  66 2.79 120 2.80  76 2.81  74 2.82
                           114 2.84  88 2.85 146 2.87 138 3.22 124 3.37
 107  0.014  0.592  0.154-  68 2.62 124 2.69  76 2.73  98 2.73  77 2.75 109 2.76 106 2.76  99 2.77
                           117 2.79 116 2.96
 108  0.514  0.592  0.154-  67 2.62 123 2.69  75 2.73  97 2.73  78 2.75 110 2.76 105 2.76 100 2.77
                           118 2.79 115 2.96
 109  0.163  0.500  0.160-  69 2.73 111 2.73  77 2.74 107 2.76 101 2.76 117 2.76 147 2.77 129 2.79
                            79 2.80  99 2.82 119 2.85
 110  0.663  0.500  0.160-  70 2.73 112 2.73  78 2.74 108 2.76 102 2.76 118 2.76 148 2.77 130 2.79
                            80 2.80 100 2.82 120 2.85
 111  0.310  0.408  0.154-  79 2.62 125 2.69  71 2.73 109 2.73  57 2.75  97 2.76 101 2.76 119 2.77
                            89 2.79 103 2.96
 112  0.810  0.408  0.154-  80 2.62 126 2.69  72 2.73 110 2.73  58 2.75  98 2.76 102 2.76 120 2.77
                            90 2.79 104 2.96
 113  0.311  0.901  0.160- 127 2.68  53 2.73  73 2.74  87 2.75  83 2.77  93 2.78 115 2.80  95 2.83
                            43 2.83 105 2.84 145 3.19
 114  0.811  0.901  0.160- 128 2.68  54 2.73  74 2.74  88 2.75  84 2.77  94 2.78 116 2.80  96 2.83
                            44 2.83 106 2.84 146 3.19
 115  0.462  0.804  0.163- 171 2.12  95 2.74  43 2.75 105 2.78 118 2.78 113 2.80  75 2.80  86 2.80
                            46 2.84 108 2.96 123 3.04 127 3.17 136 3.19
 116  0.962  0.804  0.163- 172 2.12  96 2.74  44 2.75 106 2.78 117 2.78 114 2.80  76 2.80  85 2.80
                            45 2.84 107 2.96 124 3.04 128 3.17 135 3.19
 117  0.110  0.697  0.164- 153 2.11  77 2.74 109 2.76 116 2.78  45 2.78 107 2.79 119 2.81  85 2.84
                           141 2.87  47 2.89  87 2.90 129 3.23 124 3.32
 118  0.610  0.697  0.164- 154 2.11  78 2.74 110 2.76 115 2.78  46 2.78 108 2.79 120 2.81  86 2.84
                           142 2.87  48 2.89  88 2.90 130 3.23 123 3.32
 119  0.262  0.606  0.164-  87 2.72  47 2.75 111 2.77 105 2.80 117 2.81  97 2.82 129 2.82  79 2.83
                            65 2.85 109 2.85 137 2.86
 120  0.762  0.606  0.164-  88 2.72  48 2.75 112 2.77 106 2.80 118 2.81  98 2.82 130 2.82  80 2.83
                            66 2.85 110 2.85 138 2.86
 121  0.164  0.000  0.353- 163 1.95 169 1.95 151 2.11 157 2.12  83 2.66
 122  0.664  0.000  0.353- 164 1.95 170 1.95 152 2.11 158 2.12  84 2.66
 123  0.498  0.667  0.331- 166 1.99 171 2.01 154 2.15 159 2.16 108 2.69 115 3.04 118 3.32 105 3.37

 124  0.998  0.667  0.331- 165 1.99 172 2.01 153 2.15 160 2.16 107 2.69 116 3.04 117 3.32 106 3.37

 125  0.331  0.333  0.331- 173 1.99 167 2.01 155 2.15 161 2.16 111 2.69 103 3.04  89 3.32 101 3.37

 126  0.831  0.333  0.331- 174 1.99 168 2.01 156 2.15 162 2.16 112 2.69 104 3.04  90 3.32 102 3.37

 127  0.362  0.900  0.339- 151 1.95 171 1.99 145 2.60 113 2.68 139 2.78 136 2.97  95 3.11 115 3.17

 128  0.862  0.900  0.339- 152 1.95 172 1.99 146 2.60 114 2.68 140 2.78 135 2.97  96 3.11 116 3.17

 129  0.201  0.562  0.333- 173 1.95 153 2.00 147 2.64 109 2.79 119 2.82 137 2.85 141 2.99 117 3.23

 130  0.701  0.562  0.333- 174 1.95 154 2.00 148 2.64 110 2.79 120 2.82 138 2.85 142 2.99 118 3.23

 131  0.035  0.224  0.336- 169 1.93 156 1.99 150 2.60  91 2.85 133 2.86  90 2.87 144 2.99  81 3.16

 132  0.535  0.224  0.336- 170 1.93 155 1.99 149 2.60  92 2.85 134 2.86  89 2.87 143 2.99  82 3.16

 133  0.182  0.224  0.339- 169 1.93 161 1.99 139 2.60 131 2.86 101 2.87  91 2.88 147 2.98  93 3.19

 134  0.682  0.224  0.339- 170 1.93 162 1.99 140 2.60 132 2.86 102 2.87  92 2.88 148 2.98  94 3.19

 135  0.016  0.900  0.339- 157 1.95 172 1.99 141 2.60  85 2.68 150 2.78 128 2.97  96 3.13 116 3.19

 136  0.516  0.900  0.339- 158 1.95 171 1.99 142 2.60  86 2.68 149 2.78 127 2.97  95 3.13 115 3.19

 137  0.348  0.562  0.334- 173 1.95 159 2.00 143 2.64  97 2.77 129 2.85 119 2.86 145 2.98 105 3.22

 138  0.848  0.562  0.334- 174 1.95 160 2.00 144 2.64  98 2.77 130 2.85 120 2.86 146 2.98 106 3.22

 139  0.313  0.100  0.339- 151 1.95 167 1.99 133 2.60  93 2.68 127 2.78 149 2.97  95 3.11 103 3.17

 140  0.813  0.100  0.339- 152 1.95 168 1.99 134 2.60  94 2.68 128 2.78 150 2.97  96 3.11 104 3.17

 141  0.147  0.776  0.336- 163 1.93 153 1.99 135 2.60  87 2.85 145 2.86 117 2.87 129 2.99  85 3.16

 142  0.647  0.776  0.336- 164 1.93 154 1.99 136 2.60  88 2.85 146 2.86 118 2.87 130 2.99  86 3.16

 143  0.481  0.438  0.333- 166 1.95 155 2.00 137 2.64  97 2.79 100 2.82 148 2.85 132 2.99  89 3.23

 144  0.981  0.438  0.333- 165 1.95 156 2.00 138 2.64  98 2.79  99 2.82 147 2.85 131 2.99  90 3.23

 145  0.294  0.776  0.339- 163 1.93 159 1.99 127 2.60 141 2.86 105 2.87  87 2.88 137 2.98 113 3.19

 146  0.794  0.776  0.339- 164 1.93 160 1.99 128 2.60 142 2.86 106 2.87  88 2.88 138 2.98 114 3.19

 147  0.129  0.438  0.334- 165 1.95 161 2.00 129 2.64 109 2.77 144 2.85  99 2.86 133 2.98 101 3.22

 148  0.629  0.438  0.334- 166 1.95 162 2.00 130 2.64 110 2.77 143 2.85 100 2.86 134 2.98 102 3.22

 149  0.466  0.100  0.339- 158 1.95 167 1.99 132 2.60  82 2.68 136 2.78 139 2.97  95 3.13 103 3.19

 150  0.966  0.100  0.339- 157 1.95 168 1.99 131 2.60  81 2.68 135 2.78 140 2.97  96 3.13 104 3.19

 151  0.272  0.000  0.375- 127 1.95 139 1.95 121 2.11
 152  0.772  0.000  0.375- 128 1.95 140 1.95 122 2.11
 153  0.108  0.669  0.311- 141 1.99 129 2.00 117 2.11 124 2.15
 154  0.608  0.669  0.311- 142 1.99 130 2.00 118 2.11 123 2.15
 155  0.442  0.331  0.311- 132 1.99 143 2.00  89 2.11 125 2.15
 156  0.942  0.331  0.311- 131 1.99 144 2.00  90 2.11 126 2.15
 157  0.056  0.000  0.375- 135 1.95 150 1.95 121 2.12
 158  0.556  0.000  0.375- 136 1.95 149 1.95 122 2.12
 159  0.387  0.670  0.312- 145 1.99 137 2.00 105 2.11 123 2.16
 160  0.887  0.670  0.312- 146 1.99 138 2.00 106 2.11 124 2.16
 161  0.222  0.330  0.312- 133 1.99 147 2.00 101 2.11 125 2.16
 162  0.722  0.330  0.312- 134 1.99 148 2.00 102 2.11 126 2.16
 163  0.199  0.862  0.372- 145 1.93 141 1.93 121 1.95
 164  0.699  0.862  0.372- 146 1.93 142 1.93 122 1.95
 165  0.033  0.528  0.364- 147 1.95 144 1.95 124 1.99
 166  0.533  0.528  0.364- 148 1.95 143 1.95 123 1.99
 167  0.366  0.191  0.314- 149 1.99 139 1.99 125 2.01 103 2.12
 168  0.866  0.191  0.314- 150 1.99 140 1.99 126 2.01 104 2.12
 169  0.130  0.138  0.372- 133 1.93 131 1.93 121 1.95
 170  0.630  0.138  0.372- 134 1.93 132 1.93 122 1.95
 171  0.462  0.809  0.314- 136 1.99 127 1.99 123 2.01 115 2.12
 172  0.962  0.809  0.314- 135 1.99 128 1.99 124 2.01 116 2.12
 173  0.297  0.472  0.364- 137 1.95 129 1.95 125 1.99
 174  0.797  0.472  0.364- 138 1.95 130 1.95 126 1.99

  LATTYP: Found a simple monoclinic cell.
 ALAT       =    27.9600000088
 B/A-ratio  =     0.5007153074
 C/A-ratio  =     1.6370705531
 COS(beta)  =    -0.9773555549
  
  Lattice vectors:
  
 A1 = ( -24.2140703000, -13.9800000000,   0.0000000000)
 A2 = (   0.0000000000,   0.0000000000, -14.0000000000)
 A3 = (  43.5853265000,  13.9800000000,   0.0000000000)


Analysis of symmetry for initial positions (statically):
=====================================================================
 Subroutine PRICEL returns:
 Original cell was already a primitive cell.
 

 Routine SETGRP: Setting up the symmetry group for a 
 simple monoclinic supercell.


 Subroutine GETGRP returns: Found  1 space group operations
 (whereof  1 operations were pure point group operations)
 out of a pool of  4 trial point group operations.


The static configuration has the point symmetry C_1 .


Analysis of symmetry for dynamics (positions and initial velocities):
=====================================================================
 Subroutine PRICEL returns:
 Original cell was already a primitive cell.
 

 Routine SETGRP: Setting up the symmetry group for a 
 simple monoclinic supercell.


 Subroutine GETGRP returns: Found  1 space group operations
 (whereof  1 operations were pure point group operations)
 out of a pool of  4 trial point group operations.


The dynamic configuration has the point symmetry C_1 .


Analysis of constrained symmetry for selective dynamics:
=====================================================================
 Subroutine PRICEL returns:
 Original cell was already a primitive cell.
 

 Routine SETGRP: Setting up the symmetry group for a 
 simple monoclinic supercell.


 Subroutine GETGRP returns: Found  1 space group operations
 (whereof  1 operations were pure point group operations)
 out of a pool of  4 trial point group operations.


The constrained configuration has the point symmetry C_1 .


 Subroutine INISYM returns: Found  1 space group operations
 (whereof  1 operations are pure point group operations),
 and found     1 'primitive' translations



 KPOINTS: test                                    

Automatic generation of k-mesh.
Space group operators:
 irot       det(A)        alpha          n_x          n_y          n_z        tau_x        tau_y        tau_z
    1     1.000000     0.000000     1.000000     0.000000     0.000000     0.000000     0.000000     0.000000
 
 Subroutine IBZKPT returns following result:
 ===========================================
 
 Found      1 irreducible k-points:
 
 Following reciprocal coordinates:
            Coordinates               Weight
  0.000000  0.000000  0.000000      1.000000
 
 Following cartesian coordinates:
            Coordinates               Weight
  0.000000  0.000000  0.000000      1.000000
 

 ----------------------------------------------------------------------------- 
|                                                                             |
|           W    W    AA    RRRRR   N    N  II  N    N   GGGG   !!!           |
|           W    W   A  A   R    R  NN   N  II  NN   N  G    G  !!!           |
|           W    W  A    A  R    R  N N  N  II  N N  N  G       !!!           |
|           W WW W  AAAAAA  RRRRR   N  N N  II  N  N N  G  GGG   !            |
|           WW  WW  A    A  R   R   N   NN  II  N   NN  G    G                |
|           W    W  A    A  R    R  N    N  II  N    N   GGGG   !!!           |
|                                                                             |
|      The number of bands has been changed from the values supplied          |
|      in the INCAR file. This is a result of running the parallel version.   |
|      The orbitals not found in the WAVECAR file will be initialized with    |
|      random numbers, which is usually adequate. For correlated              |
|      calculations, however, you should redo the groundstate calculation.    |
|      I found NBANDS    =     1024  now  NBANDS  =    1034                   |
|                                                                             |
 ----------------------------------------------------------------------------- 



--------------------------------------------------------------------------------------------------------




 Dimension of arrays:
   k-points           NKPTS =      1   k-points in BZ     NKDIM =      1   number of bands    NBANDS=   1034
   number of dos      NEDOS =    301   number of ions     NIONS =    174
   non local maximal  LDIM  =      6   non local SUM 2l+1 LMDIM =     18
   total plane-waves  NPLWV = 259200
   max r-space proj   IRMAX =   1445   max aug-charges    IRDMAX=   3515
   dimension x,y,z NGX =    80 NGY =   60 NGZ =   54
   dimension x,y,z NGXF=   160 NGYF=  120 NGZF=  108
   support grid    NGXF=   160 NGYF=  120 NGZF=  108
   ions per type =             150  24
   NGX,Y,Z   is equivalent  to a cutoff of   6.87,  6.74,  6.41 a.u.
   NGXF,Y,Z  is equivalent  to a cutoff of  13.73, 13.48, 12.82 a.u.

 SYSTEM =  unknown system                          
 POSCAR =  this is a 5x4 supercell, 3 layer: one la

 Startparameter for this run:
   NWRITE =      2    write-flag & timer
   PREC   = normal    normal or accurate (medium, high low for compatibility)
   ISTART =      0    job   : 0-new  1-cont  2-samecut
   ICHARG =      2    charge: 1-file 2-atom 10-const
   ISPIN  =      1    spin polarized calculation?
   LNONCOLLINEAR =      F non collinear calculations
   LSORBIT =      F    spin-orbit coupling
   INIWAV =      1    electr: 0-lowe 1-rand  2-diag
   LASPH  =      F    aspherical Exc in radial PAW
   METAGGA=      F    non-selfconsistent MetaGGA calc.

 Electronic Relaxation 1
   ENCUT  =  250.0 eV  18.37 Ry    4.29 a.u.  24.97 19.07 18.05*2*pi/ulx,y,z
   ENINI  =  250.0     initial cutoff
   ENAUG  =  416.2 eV  augmentation charge cutoff
   NELM   =     40;   NELMIN=  2; NELMDL=  0     # of ELM steps 
   EDIFF  = 0.1E-07   stopping-criterion for ELM
   LREAL  =      T    real-space projection
   NLSPLINE    = F    spline interpolate recip. space projectors
   LCOMPAT=      F    compatible to vasp.4.4
   GGA_COMPAT  = T    GGA compatible to vasp.4.4-vasp.4.6
   LMAXPAW     = -100 max onsite density
   LMAXMIX     =    2 max onsite mixed and CHGCAR
   VOSKOWN=      0    Vosko Wilk Nusair interpolation
   ROPT   =   -0.00050  -0.00050
 Ionic relaxation
   EDIFFG = 0.1E-06   stopping-criterion for IOM
   NSW    =      0    number of steps for IOM
   NBLOCK =      1;   KBLOCK =      1    inner block; outer block 
   IBRION =     -1    ionic relax: 0-MD 1-quasi-New 2-CG
   NFREE  =      0    steps in history (QN), initial steepest desc. (CG)
   ISIF   =      2    stress and relaxation
   IWAVPR =     10    prediction:  0-non 1-charg 2-wave 3-comb
   ISYM   =      2    0-nonsym 1-usesym 2-fastsym
   LCORR  =      T    Harris-Foulkes like correction to forces

   POTIM  = 0.5000    time-step for ionic-motion
   TEIN   =    0.0    initial temperature
   TEBEG  =    0.0;   TEEND  =   0.0 temperature during run
   SMASS  =  -3.00    Nose mass-parameter (am)
   estimated Nose-frequenzy (Omega)   =  0.10E-29 period in steps =****** mass=  -0.858E-26a.u.
   SCALEE = 1.0000    scale energy and forces
   NPACO  =    256;   APACO  = 16.0  distance and # of slots for P.C.
   PSTRESS=    0.0 pullay stress

  Mass of Ions in am
   POMASS = 106.42 60.00
  Ionic Valenz
   ZVAL   =  10.00  6.00
  Atomic Wigner-Seitz radii
   RWIGS  =  -1.00 -1.00
  virtual crystal weights 
   VCA    =   1.00  1.00
   NELECT =    1644.0000    total number of electrons
   NUPDOWN=      -1.0000    fix difference up-down

 DOS related values:
   EMIN   =  10.00;   EMAX   =-10.00  energy-range for DOS
   EFERMI =   0.00
   ISMEAR =     0;   SIGMA  =   0.05  broadening in eV -4-tet -1-fermi 0-gaus

 Electronic relaxation 2 (details)
   IALGO  =     48    algorithm
   LDIAG  =      T    sub-space diagonalisation (order eigenvalues)
   LSUBROT=      F    optimize rotation matrix (better conditioning)
   TURBO    =      0    0=normal 1=particle mesh
   IRESTART =      0    0=no restart 2=restart with 2 vectors
   NREBOOT  =      0    no. of reboots
   NMIN     =      0    reboot dimension
   EREF     =   0.00    reference energy to select bands
   IMIX   =      4    mixing-type and parameters
     AMIX     =   0.40;   BMIX     =  0.00
     AMIX_MAG =   1.60;   BMIX_MAG =  0.00
     AMIN     =   0.10
     WC   =   100.;   INIMIX=   1;  MIXPRE=   1;  MAXMIX= -45

 Intra band minimization:
   WEIMIN = 0.0000     energy-eigenvalue tresh-hold
   EBREAK =  0.24E-11  absolut break condition
   DEPER  =   0.30     relativ break condition  

   TIME   =   0.40     timestep for ELM

  volume/ion in A,a.u.               =      21.79       147.04
  Fermi-wavevector in a.u.,A,eV,Ry     =   1.239114  2.341585 20.890418  1.535402
  Thomas-Fermi vector in A             =   2.373610

 Write flags
   LWAVE        =      F    write WAVECAR
   LDOWNSAMPLE  =      F    k-point downsampling of WAVECAR
   LCHARG       =      F    write CHGCAR
   LVTOT        =      F    write LOCPOT, total local potential
   LVHAR        =      F    write LOCPOT, Hartree potential only
   LELF         =      F    write electronic localiz. function (ELF)
   LORBIT       =      0    0 simple, 1 ext, 2 COOP (PROOUT), +10 PAW based schemes


 Dipole corrections
   LMONO  =      F    monopole corrections only (constant potential shift)
   LDIPOL =      F    correct potential (dipole corrections)
   IDIPOL =      0    1-x, 2-y, 3-z, 4-all directions 
   EPSILON=  1.0000000 bulk dielectric constant

 Exchange correlation treatment:
   GGA     =    --    GGA type
   LEXCH   =     7    internal setting for exchange type
   VOSKOWN=      0    Vosko Wilk Nusair interpolation
   LHFCALC =     F    Hartree Fock is set to
   LHFONE  =     F    Hartree Fock one center treatment
   AEXX    =    0.0000 exact exchange contribution

 Linear response parameters
   LEPSILON=     F    determine dielectric tensor
   LRPA    =     F    only Hartree local field effects (RPA)
   LNABLA  =     F    use nabla operator in PAW spheres
   LVEL    =     F    velocity operator in full k-point grid
   LINTERFAST=   F  fast interpolation
   KINTER  =     0    interpolate to denser k-point grid
   CSHIFT  =0.1000    complex shift for real part using Kramers Kronig
   OMEGAMAX=  -1.0    maximum frequency
   DEG_THRESHOLD= 0.2000000E-02 threshold for treating states as degnerate
   RTIME   =   -0.100 relaxation time in fs
  (WPLASMAI=    0.000 imaginary part of plasma frequency in eV, 0.658/RTIME)
   DFIELD  = 0.0000000 0.0000000 0.0000000 field for delta impulse in time

 Orbital magnetization related:
   ORBITALMAG=     F  switch on orbital magnetization
   LCHIMAG   =     F  perturbation theory with respect to B field
   DQ        =  0.001000  dq finite difference perturbation B field
   LLRAUG    =     F  two centre corrections for induced B field



--------------------------------------------------------------------------------------------------------


 Static calculation
 charge density and potential will be updated during run
 non-spin polarized calculation
 RMM-DIIS sequential band-by-band
 perform sub-space diagonalisation
    before iterative eigenvector-optimisation
 modified Broyden-mixing scheme, WC =      100.0
 initial mixing is a Kerker type mixing with AMIX =  0.4000 and BMIX =      0.0001
 Hartree-type preconditioning will be used
 using additional bands          212
 real space projection scheme for non local part
 use partial core corrections
 calculate Harris-corrections to forces   (improved forces if not selfconsistent)
 use gradient corrections 
 use of overlap-Matrix (Vanderbilt PP)
 Gauss-broadening in eV      SIGMA  =   0.05


--------------------------------------------------------------------------------------------------------


  energy-cutoff  :      250.00
  volume of cell :     3791.34
      direct lattice vectors                 reciprocal lattice vectors
    19.371256200  0.000000000  0.000000000     0.051622878 -0.017882690  0.000000000
     4.842814100 13.980000000  0.000000000     0.000000000  0.071530758  0.000000000
     0.000000000  0.000000000 14.000000000     0.000000000  0.000000000  0.071428571

  length of vectors
    19.371256200 14.795041345 14.000000000     0.054632519  0.071530758  0.071428571



 k-points in units of 2pi/SCALE and weight: test                                    
   0.00000000  0.00000000  0.00000000       1.000

 k-points in reciprocal lattice and weights: test                                    
   0.00000000  0.00000000  0.00000000       1.000

 position of ions in fractional coordinates (direct lattice) 
   0.08333335  0.00000000  0.83692313
   0.58333335  0.00000000  0.83692313
   0.48333335  0.90000000  0.83692313
   0.98333335  0.90000000  0.83692313
   0.13333335  0.80000000  0.83692313
   0.63333335  0.80000000  0.83692313
   0.28333335  0.70000000  0.83692313
   0.78333335  0.70000000  0.83692313
   0.03333335  0.20000000  0.83692313
   0.53333335  0.20000000  0.83692313
   0.18333335  0.10000000  0.83692313
   0.68333335  0.10000000  0.83692313
   0.33333335  0.00000000  0.83692313
   0.83333335  0.00000000  0.83692313
   0.23333335  0.90000000  0.83692313
   0.73333335  0.90000000  0.83692313
   0.48333335  0.40000000  0.83692313
   0.98333335  0.40000000  0.83692313
   0.13333335  0.30000000  0.83692313
   0.63333335  0.30000000  0.83692313
   0.28333335  0.20000000  0.83692313
   0.78333335  0.20000000  0.83692313
   0.43333335  0.10000000  0.83692313
   0.93333335  0.10000000  0.83692313
   0.43333335  0.60000000  0.83692313
   0.93333335  0.60000000  0.83692313
   0.08333335  0.50000000  0.83692313
   0.58333335  0.50000000  0.83692313
   0.23333335  0.40000000  0.83692313
   0.73333335  0.40000000  0.83692313
   0.38333335  0.30000000  0.83692313
   0.88333335  0.30000000  0.83692313
   0.38333335  0.80000000  0.83692313
   0.88333335  0.80000000  0.83692313
   0.03333335  0.70000000  0.83692313
   0.53333335  0.70000000  0.83692313
   0.18333335  0.60000000  0.83692313
   0.68333335  0.60000000  0.83692313
   0.33333335  0.50000000  0.83692313
   0.83333335  0.50000000  0.83692313
   0.00000000  0.00000000  0.00000000
   0.50000000  0.00000000  0.00000000
   0.40000000  0.90000000  0.00000000
   0.90000000  0.90000000  0.00000000
   0.05000000  0.80000000  0.00000000
   0.55000000  0.80000000  0.00000000
   0.20000000  0.70000000  0.00000000
   0.70000000  0.70000000  0.00000000
   0.45000000  0.20000000  0.00000000
   0.95000000  0.20000000  0.00000000
   0.10000000  0.10000000  0.00000000
   0.60000000  0.10000000  0.00000000
   0.25000000  0.00000000  0.00000000
   0.75000000  0.00000000  0.00000000
   0.15000000  0.90000000  0.00000000
   0.65000000  0.90000000  0.00000000
   0.40000000  0.40000000  0.00000000
   0.90000000  0.40000000  0.00000000
   0.05000000  0.30000000  0.00000000
   0.55000000  0.30000000  0.00000000
   0.20000000  0.20000000  0.00000000
   0.70000000  0.20000000  0.00000000
   0.35000000  0.10000000  0.00000000
   0.85000000  0.10000000  0.00000000
   0.35000000  0.60000000  0.00000000
   0.85000000  0.60000000  0.00000000
   0.50000000  0.50000000  0.00000000
   1.00000000  0.50000000  0.00000000
   0.15000000  0.40000000  0.00000000
   0.65000000  0.40000000  0.00000000
   0.30000000  0.30000000  0.00000000
   0.80000000  0.30000000  0.00000000
   0.30000000  0.80000000  0.00000000
   0.80000000  0.80000000  0.00000000
   0.45000000  0.70000000  0.00000000
   0.95000000  0.70000000  0.00000000
   0.10000000  0.60000000  0.00000000
   0.60000000  0.60000000  0.00000000
   0.25000000  0.50000000  0.00000000
   0.75000000  0.50000000  0.00000000
   0.01495058  0.10014036  0.16031146
   0.51495058  0.10014036  0.16031146
   0.16282004  0.00000000  0.16247928
   0.66282004  0.00000000  0.16247928
   0.06502110  0.89985949  0.16031146
   0.56502110  0.89985949  0.16031146
   0.21436372  0.80004358  0.16148210
   0.71436372  0.80004358  0.16148210
   0.45847915  0.30284162  0.16364800
   0.95847915  0.30284162  0.16364800
   0.11438507  0.19995696  0.16148210
   0.61438507  0.19995696  0.16148210
   0.26152362  0.09948492  0.16044049
   0.76152362  0.09948492  0.16044049
   0.41319454  0.00000000  0.16994275
   0.91319454  0.00000000  0.16994275
   0.41231991  0.50044845  0.15950656
   0.91231991  0.50044845  0.15950656
   0.06473144  0.39442167  0.16411605
   0.56473144  0.39442167  0.16411605
   0.21593544  0.30212090  0.16418836
   0.71593544  0.30212090  0.16418836
   0.36392144  0.19617376  0.16280981
   0.86392144  0.19617376  0.16280981
   0.36699623  0.69787896  0.16418836
   0.86699623  0.69787896  0.16418836
   0.01386400  0.59244054  0.15434624
   0.51386400  0.59244054  0.15434624
   0.16254438  0.49955141  0.15950656
   0.66254438  0.49955141  0.15950656
   0.31008410  0.40755931  0.15434624
   0.81008410  0.40755931  0.15434624
   0.31126643  0.90051494  0.16044049
   0.81126643  0.90051494  0.16044049
   0.46200815  0.80382609  0.16280981
   0.96200815  0.80382609  0.16280981
   0.10990021  0.69715824  0.16364800
   0.60990021  0.69715824  0.16364800
   0.26194262  0.60557818  0.16411605
   0.76194262  0.60557818  0.16411605
   0.16437443  0.00000000  0.35277923
   0.66437443  0.00000000  0.35277923
   0.49818347  0.66652754  0.33130442
   0.99818347  0.66652754  0.33130442
   0.33144749  0.33347232  0.33130442
   0.83144749  0.33347232  0.33130442
   0.36230697  0.90042659  0.33873335
   0.86230697  0.90042659  0.33873335
   0.20052754  0.56177729  0.33345780
   0.70052754  0.56177729  0.33345780
   0.03460828  0.22406994  0.33599237
   0.53460828  0.22406994  0.33599237
   0.18212067  0.22443647  0.33873005
   0.68212067  0.22443647  0.33873005
   0.01558852  0.90049794  0.33885496
   0.51558852  0.90049794  0.33885496
   0.34780960  0.56214232  0.33444527
   0.84780960  0.56214232  0.33444527
   0.31251982  0.09957396  0.33873335
   0.81251982  0.09957396  0.33873335
   0.14664359  0.77592992  0.33599237
   0.64664359  0.77592992  0.33599237
   0.48141653  0.43822256  0.33345780
   0.98141653  0.43822256  0.33345780
   0.29433856  0.77556407  0.33873005
   0.79433856  0.77556407  0.33873005
   0.12888084  0.43785822  0.33444527
   0.62888084  0.43785822  0.33444527
   0.46583766  0.09950260  0.33885496
   0.96583766  0.09950260  0.33885496
   0.27223933  0.00000000  0.37540114
   0.77223933  0.00000000  0.37540114
   0.10764004  0.66945196  0.31136212
   0.60764004  0.66945196  0.31136212
   0.44236584  0.33054790  0.31136212
   0.94236584  0.33054790  0.31136212
   0.05617802  0.00000000  0.37484731
   0.55617802  0.00000000  0.37484731
   0.38673161  0.66972820  0.31155318
   0.88673161  0.66972820  0.31155318
   0.22159596  0.33027166  0.31155318
   0.72159596  0.33027166  0.31155318
   0.19872078  0.86195749  0.37229563
   0.69872078  0.86195749  0.37229563
   0.03277249  0.52790134  0.36371310
   0.53277249  0.52790134  0.36371310
   0.36642809  0.19093634  0.31445775
   0.86642809  0.19093634  0.31445775
   0.12969960  0.13804305  0.37229563
   0.62969960  0.13804305  0.37229563
   0.46189609  0.80906351  0.31445775
   0.96189609  0.80906351  0.31445775
   0.29672299  0.47209852  0.36371310
   0.79673277  0.47209852  0.36371310

 position of ions in cartesian coordinates  (Angst):
   1.61427170  0.00000000 11.71692380
  11.29989980  0.00000000 11.71692380
  13.72130680 12.58200000 11.71692380
  23.40693490 12.58200000 11.71692380
   6.45708570 11.18400000 11.71692380
  16.14271380 11.18400000 11.71692380
   8.87849270  9.78600000 11.71692380
  18.56412080  9.78600000 11.71692380
   1.61427170  2.79600000 11.71692380
  11.29989980  2.79600000 11.71692380
   4.03567870  1.39800000 11.71692380
  13.72130680  1.39800000 11.71692380
   6.45708570  0.00000000 11.71692380
  16.14271380  0.00000000 11.71692380
   8.87849270 12.58200000 11.71692380
  18.56412080 12.58200000 11.71692380
  11.29989980  5.59200000 11.71692380
  20.98552790  5.59200000 11.71692380
   4.03567870  4.19400000 11.71692380
  13.72130680  4.19400000 11.71692380
   6.45708570  2.79600000 11.71692380
  16.14271380  2.79600000 11.71692380
   8.87849270  1.39800000 11.71692380
  18.56412080  1.39800000 11.71692380
  11.29989980  8.38800000 11.71692380
  20.98552790  8.38800000 11.71692380
   4.03567870  6.99000000 11.71692380
  13.72130680  6.99000000 11.71692380
   6.45708570  5.59200000 11.71692380
  16.14271380  5.59200000 11.71692380
   8.87849270  4.19400000 11.71692380
  18.56412080  4.19400000 11.71692380
  11.29989980 11.18400000 11.71692380
  20.98552790 11.18400000 11.71692380
   4.03567870  9.78600000 11.71692380
  13.72130680  9.78600000 11.71692380
   6.45708570  8.38800000 11.71692380
  16.14271380  8.38800000 11.71692380
   8.87849270  6.99000000 11.71692380
  18.56412080  6.99000000 11.71692380
   0.00000000  0.00000000  0.00000000
   9.68562810  0.00000000  0.00000000
  12.10703510 12.58200000  0.00000000
  21.79266320 12.58200000  0.00000000
   4.84281410 11.18400000  0.00000000
  14.52844220 11.18400000  0.00000000
   7.26422110  9.78600000  0.00000000
  16.94984920  9.78600000  0.00000000
   9.68562810  2.79600000  0.00000000
  19.37125620  2.79600000  0.00000000
   2.42140700  1.39800000  0.00000000
  12.10703510  1.39800000  0.00000000
   4.84281410  0.00000000  0.00000000
  14.52844220  0.00000000  0.00000000
   7.26422110 12.58200000  0.00000000
  16.94984920 12.58200000  0.00000000
   9.68562810  5.59200000  0.00000000
  19.37125620  5.59200000  0.00000000
   2.42140700  4.19400000  0.00000000
  12.10703510  4.19400000  0.00000000
   4.84281410  2.79600000  0.00000000
  14.52844220  2.79600000  0.00000000
   7.26422110  1.39800000  0.00000000
  16.94984920  1.39800000  0.00000000
   9.68562810  8.38800000  0.00000000
  19.37125620  8.38800000  0.00000000
  12.10703510  6.99000000  0.00000000
  21.79266320  6.99000000  0.00000000
   4.84281410  5.59200000  0.00000000
  14.52844220  5.59200000  0.00000000
   7.26422110  4.19400000  0.00000000
  16.94984920  4.19400000  0.00000000
   9.68562810 11.18400000  0.00000000
  19.37125620 11.18400000  0.00000000
  12.10703510  9.78600000  0.00000000
  21.79266320  9.78600000  0.00000000
   4.84281410  8.38800000  0.00000000
  14.52844220  8.38800000  0.00000000
   7.26422110  6.99000000  0.00000000
  16.94984920  6.99000000  0.00000000
   0.77457270  1.39996230  2.24436050
  10.46020080  1.39996230  2.24436050
   3.15402880  0.00000000  2.27470990
  12.83965690  0.00000000  2.27470990
   5.61739270 12.58003570  2.24436050
  15.30302080 12.58003570  2.24436050
   8.02695680 11.18460930  2.26074940
  17.71258490 11.18460930  2.26074940
  10.34792280  4.23372580  2.29107200
  20.03355090  4.23372580  2.29107200
   3.18413680  2.79539830  2.26074940
  12.86976490  2.79539830  2.26074940
   5.54782810  1.39079920  2.24616690
  15.23345620  1.39079920  2.24616690
   8.00409720  0.00000000  2.37919850
  17.68972530  0.00000000  2.37919850
  10.41073340  6.99626930  2.23309190
  20.09636150  6.99626930  2.23309190
   3.16404020  5.51401500  2.29762470
  12.84966830  5.51401500  2.29762470
   5.64605600  4.22365020  2.29863710
  15.33168410  4.22365020  2.29863710
   7.99964850  2.74250920  2.27933730
  17.68527660  2.74250920  2.27933730
  10.48887600  9.75634780  2.29863710
  20.17450410  9.75634780  2.29863710
   3.13764250  8.28231880  2.16084740
  12.82327060  8.28231880  2.16084740
   5.56792340  6.98372870  2.23309190
  15.25355150  6.98372870  2.23309190
   7.98045250  5.69767920  2.16084740
  17.66608060  5.69767920  2.16084740
  10.39064810 12.58919880  2.24616690
  20.07627620 12.58919880  2.24616690
  12.84245850 11.23748870  2.27933730
  22.52808660 11.23748870  2.27933730
   5.50511280  9.74627220  2.29107200
  15.19074090  9.74627220  2.29107200
   8.00686020  8.46598300  2.29762470
  17.69248830  8.46598300  2.29762470
   3.18413910  0.00000000  4.93890920
  12.86976720  0.00000000  4.93890920
  12.87830860  9.31805500  4.63826190
  22.56393670  9.31805500  4.63826190
   8.03549860  4.66194300  4.63826190
  17.72112670  4.66194300  4.63826190
  11.37893970 12.58796370  4.74226690
  21.06456780 12.58796370  4.74226690
   6.60505340  7.85364650  4.66840920
  16.29068150  7.85364650  4.66840920
   1.75553490  3.13249770  4.70389320
  11.44116300  3.13249770  4.70389320
   4.61481020  3.13762190  4.74222070
  14.30043830  3.13762190  4.74222070
   4.66291330 12.58896120  4.74396950
  14.34854140 12.58896120  4.74396950
   9.45985970  7.85874970  4.68223380
  19.14548780  7.85874970  4.68223380
   6.53611970  1.39204390  4.74226690
  16.22174780  1.39204390  4.74226690
   6.59835490 10.84750030  4.70389320
  16.28398300 10.84750030  4.70389320
  11.44787340  6.12635140  4.66840920
  21.13350150  6.12635140  4.66840920
   9.45762020 10.84238570  4.74222070
  19.14324830 10.84238570  4.74222070
   4.61704970  6.12125790  4.68223380
  14.30267780  6.12125790  4.68223380
   9.50573330  1.39104640  4.74396950
  19.19136140  1.39104640  4.74396950
   5.27361780  0.00000000  5.25561600
  14.95924590  0.00000000  5.25561600
   5.32715410  9.35893840  4.35906970
  15.01278220  9.35893840  4.35906970
  10.16996410  4.62105960  4.35906970
  19.85559220  4.62105960  4.35906970
   1.08823880  0.00000000  5.24786230
  10.77386690  0.00000000  5.24786230
  10.73484630  9.36280020  4.36174450
  20.42047440  9.36280020  4.36174450
   5.89203630  4.61719780  4.36174450
  15.57766440  4.61719780  4.36174450
   8.02377100 12.05016570  5.21213880
  17.70939910 12.05016570  5.21213880
   3.19137240  7.38006070  5.09198340
  12.87700050  7.38006070  5.09198340
   8.02284170  2.66929010  4.40240850
  17.70846980  2.66929010  4.40240850
   3.18096100  1.92984190  5.21213880
  12.86658910  1.92984190  5.21213880
  12.86565170 11.31070790  4.40240850
  22.55127980 11.31070790  4.40240850
   8.03418240  6.59993730  5.09198340
  17.72000000  6.59993730  5.09198340



--------------------------------------------------------------------------------------------------------


 k-point  1 :   0.0000 0.0000 0.0000  plane waves:   33967

 maximum and minimum number of plane-waves per node :      8498     8480

 maximum number of plane-waves:     33967
 maximum index in each direction: 
   IXMAX=   24   IYMAX=   19   IZMAX=   18
   IXMIN=  -24   IYMIN=  -19   IZMIN=  -18


 real space projection operators:
  total allocation   :      30454.19 KBytes
  max/ min on nodes  :       7641.94       7599.69


 parallel 3D FFT for wavefunctions:
    minimum data exchange during FFTs selected (reduces bandwidth)
 parallel 3D FFT for charge:
    minimum data exchange during FFTs selected (reduces bandwidth)


 total amount of memory used by VASP MPI-rank0    67427. kBytes
=======================================================================

   base      :      30000. kBytes
   nonlr-proj:      13577. kBytes
   fftplans  :       3734. kBytes
   grid      :       5552. kBytes
   one-center:        684. kBytes
   wavefun   :      13880. kBytes

     INWAV:  cpu time    0.0000: real time    0.0000
 Broyden mixing: mesh for mixing (old mesh)
   NGX = 49   NGY = 39   NGZ = 37
  (NGX  =160   NGY  =120   NGZ  =108)
  gives a total of  70707 points

 initial charge density was supplied:
 charge density of overlapping atoms calculated
 number of electron    1644.0000000 magnetization 
 keeping initial charge density in first step


--------------------------------------------------------------------------------------------------------


 Maximum index for non-local projection operator          350
 Maximum index for augmentation-charges          251 (set IRDMAX)


--------------------------------------------------------------------------------------------------------


 First call to EWALD:  gamma=   0.114
 Maximum number of real-space cells 2x 3x 3
 Maximum number of reciprocal cells 3x 3x 3

    FEWALD:  cpu time    0.0080: real time    0.0106


--------------------------------------- Iteration      1(   1)  ---------------------------------------


    POTLOK:  cpu time    0.0680: real time    0.1120
    SETDIJ:  cpu time    0.0120: real time    0.0111
    EDDIAG:  cpu time    1.1920: real time    1.1942
  RMM-DIIS:  cpu time    1.1600: real time    1.1597
    ORTHCH:  cpu time    0.5080: real time    0.5048
       DOS:  cpu time    0.0000: real time    0.0005
    --------------------------------------------
      LOOP:  cpu time    2.9400: real time    2.9824

 eigenvalue-minimisations  :  1034
 total energy-change (2. order) : 0.1435530E+05  (-0.4217800E+05)
 number of electron    1644.0000000 magnetization 
 augmentation part     1644.0000000 magnetization 

 Free energy of the ion-electron system (eV)
  ---------------------------------------------------
  alpha Z        PSCENC =      9121.47144996
  Ewald energy   TEWEN  =     -5452.09988378
  -Hartree energ DENC   =   -138873.57095626
  -exchange      EXHF   =         0.00000000
  -V(xc)+E(xc)   XCENC  =     -3842.32964863
  PAW double counting   =    108888.23390046   -99617.05824495
  entropy T*S    EENTRO =        -0.09460271
  eigenvalues    EBANDS =     12136.37041816
  atomic energy  EATOM  =    131994.37304538
  Solvation  Ediel_sol  =         0.00000000
  ---------------------------------------------------
  free energy    TOTEN  =     14355.29547764 eV

  energy without entropy =    14355.39008035  energy(sigma->0) =    14355.34277899


--------------------------------------------------------------------------------------------------------




--------------------------------------- Iteration      1(   2)  ---------------------------------------


    EDDIAG:  cpu time    1.1920: real time    1.2439
  RMM-DIIS:  cpu time    1.1760: real time    1.1754
    ORTHCH:  cpu time    0.5000: real time    0.4969
       DOS:  cpu time    0.0000: real time    0.0005
    --------------------------------------------
      LOOP:  cpu time    2.8680: real time    2.9167

 eigenvalue-minimisations  :  1034
 total energy-change (2. order) :-0.1115427E+05  (-0.1224501E+05)
 number of electron    1644.0000000 magnetization 
 augmentation part     1644.0000000 magnetization 

 Free energy of the ion-electron system (eV)
  ---------------------------------------------------
  alpha Z        PSCENC =      9121.47144996
  Ewald energy   TEWEN  =     -5452.09988378
  -Hartree energ DENC   =   -138873.57095626
  -exchange      EXHF   =         0.00000000
  -V(xc)+E(xc)   XCENC  =     -3842.32964863
  PAW double counting   =    108888.23390046   -99617.05824495
  entropy T*S    EENTRO =        -0.10100418
  eigenvalues    EBANDS =       982.10307639
  atomic energy  EATOM  =    131994.37304538
  Solvation  Ediel_sol  =         0.00000000
  ---------------------------------------------------
  free energy    TOTEN  =      3201.02173440 eV

  energy without entropy =     3201.12273858  energy(sigma->0) =     3201.07223649


--------------------------------------------------------------------------------------------------------




--------------------------------------- Iteration      1(   3)  ---------------------------------------


    EDDIAG:  cpu time    1.1960: real time    1.2115
  RMM-DIIS:  cpu time    1.1800: real time    1.1797
    ORTHCH:  cpu time    0.4960: real time    0.4948
       DOS:  cpu time    0.0000: real time    0.0005
    --------------------------------------------
      LOOP:  cpu time    2.8720: real time    2.8865

 eigenvalue-minimisations  :  1034
 total energy-change (2. order) :-0.2793783E+04  (-0.2792959E+04)
 number of electron    1644.0000000 magnetization 
 augmentation part     1644.0000000 magnetization 

 Free energy of the ion-electron system (eV)
  ---------------------------------------------------
  alpha Z        PSCENC =      9121.47144996
  Ewald energy   TEWEN  =     -5452.09988378
  -Hartree energ DENC   =   -138873.57095626
  -exchange      EXHF   =         0.00000000
  -V(xc)+E(xc)   XCENC  =     -3842.32964863
  PAW double counting   =    108888.23390046   -99617.05824495
  entropy T*S    EENTRO =        -0.19971717
  eigenvalues    EBANDS =     -1811.58139506
  atomic energy  EATOM  =    131994.37304538
  Solvation  Ediel_sol  =         0.00000000
  ---------------------------------------------------
  free energy    TOTEN  =       407.23854996 eV

  energy without entropy =      407.43826713  energy(sigma->0) =      407.33840854


--------------------------------------------------------------------------------------------------------




--------------------------------------- Iteration      1(   4)  ---------------------------------------


    EDDIAG:  cpu time    1.1960: real time    1.2081
  RMM-DIIS:  cpu time    1.1960: real time    1.1962
    ORTHCH:  cpu time    0.4960: real time    0.4954
       DOS:  cpu time    0.0000: real time    0.0005
    --------------------------------------------
      LOOP:  cpu time    2.8880: real time    2.9002

 eigenvalue-minimisations  :  1034
 total energy-change (2. order) :-0.9000673E+03  (-0.6616689E+03)
 number of electron    1644.0000000 magnetization 
 augmentation part     1644.0000000 magnetization 

 Free energy of the ion-electron system (eV)
  ---------------------------------------------------
  alpha Z        PSCENC =      9121.47144996
  Ewald energy   TEWEN  =     -5452.09988378
  -Hartree energ DENC   =   -138873.57095626
  -exchange      EXHF   =         0.00000000
  -V(xc)+E(xc)   XCENC  =     -3842.32964863
  PAW double counting   =    108888.23390046   -99617.05824495
  entropy T*S    EENTRO =        -0.14435348
  eigenvalues    EBANDS =     -2711.70409808
  atomic energy  EATOM  =    131994.37304538
  Solvation  Ediel_sol  =         0.00000000
  ---------------------------------------------------
  free energy    TOTEN  =      -492.82878938 eV

  energy without entropy =     -492.68443589  energy(sigma->0) =     -492.75661263


--------------------------------------------------------------------------------------------------------




--------------------------------------- Iteration      1(   5)  ---------------------------------------


    EDDIAG:  cpu time    1.1960: real time    1.2097
  RMM-DIIS:  cpu time    1.1800: real time    1.1788
    ORTHCH:  cpu time    0.4920: real time    0.4940
       DOS:  cpu time    0.0040: real time    0.0005
    --------------------------------------------
      LOOP:  cpu time    2.8720: real time    2.8830

 eigenvalue-minimisations  :  1034
 total energy-change (2. order) :-0.2753026E+03  (-0.1979835E+03)
 number of electron    1644.0000000 magnetization 
 augmentation part     1644.0000000 magnetization 

 Free energy of the ion-electron system (eV)
  ---------------------------------------------------
  alpha Z        PSCENC =      9121.47144996
  Ewald energy   TEWEN  =     -5452.09988378
  -Hartree energ DENC   =   -138873.57095626
  -exchange      EXHF   =         0.00000000
  -V(xc)+E(xc)   XCENC  =     -3842.32964863
  PAW double counting   =    108888.23390046   -99617.05824495
  entropy T*S    EENTRO =        -0.15701692
  eigenvalues    EBANDS =     -2986.99402512
  atomic energy  EATOM  =    131994.37304538
  Solvation  Ediel_sol  =         0.00000000
  ---------------------------------------------------
  free energy    TOTEN  =      -768.13137985 eV

  energy without entropy =     -767.97436293  energy(sigma->0) =     -768.05287139


--------------------------------------------------------------------------------------------------------




--------------------------------------- Iteration      1(   6)  ---------------------------------------


    EDDIAG:  cpu time    1.1920: real time    1.2147
  RMM-DIIS:  cpu time    1.1600: real time    1.1581
    ORTHCH:  cpu time    0.4960: real time    0.4944
       DOS:  cpu time    0.0000: real time    0.0005
    --------------------------------------------
      LOOP:  cpu time    2.8480: real time    2.8678

 eigenvalue-minimisations  :  1034
 total energy-change (2. order) :-0.1107668E+03  (-0.7655983E+02)
 number of electron    1644.0000000 magnetization 
 augmentation part     1644.0000000 magnetization 

 Free energy of the ion-electron system (eV)
  ---------------------------------------------------
  alpha Z        PSCENC =      9121.47144996
  Ewald energy   TEWEN  =     -5452.09988378
  -Hartree energ DENC   =   -138873.57095626
  -exchange      EXHF   =         0.00000000
  -V(xc)+E(xc)   XCENC  =     -3842.32964863
  PAW double counting   =    108888.23390046   -99617.05824495
  entropy T*S    EENTRO =        -0.25671839
  eigenvalues    EBANDS =     -3097.66108396
  atomic energy  EATOM  =    131994.37304538
  Solvation  Ediel_sol  =         0.00000000
  ---------------------------------------------------
  free energy    TOTEN  =      -878.89814016 eV

  energy without entropy =     -878.64142177  energy(sigma->0) =     -878.76978097


--------------------------------------------------------------------------------------------------------




--------------------------------------- Iteration      1(   7)  ---------------------------------------


    EDDIAG:  cpu time    1.1960: real time    1.2171
  RMM-DIIS:  cpu time    1.1720: real time    1.1734
    ORTHCH:  cpu time    0.4960: real time    0.4945
       DOS:  cpu time    0.0000: real time    0.0005
    --------------------------------------------
      LOOP:  cpu time    2.8640: real time    2.8855

 eigenvalue-minimisations  :  1034
 total energy-change (2. order) :-0.4281367E+02  (-0.3298384E+02)
 number of electron    1644.0000000 magnetization 
 augmentation part     1644.0000000 magnetization 

 Free energy of the ion-electron system (eV)
  ---------------------------------------------------
  alpha Z        PSCENC =      9121.47144996
  Ewald energy   TEWEN  =     -5452.09988378
  -Hartree energ DENC   =   -138873.57095626
  -exchange      EXHF   =         0.00000000
  -V(xc)+E(xc)   XCENC  =     -3842.32964863
  PAW double counting   =    108888.23390046   -99617.05824495
  entropy T*S    EENTRO =        -0.30348530
  eigenvalues    EBANDS =     -3140.42798978
  atomic energy  EATOM  =    131994.37304538
  Solvation  Ediel_sol  =         0.00000000
  ---------------------------------------------------
  free energy    TOTEN  =      -921.71181289 eV

  energy without entropy =     -921.40832759  energy(sigma->0) =     -921.56007024


--------------------------------------------------------------------------------------------------------




--------------------------------------- Iteration      1(   8)  ---------------------------------------


    EDDIAG:  cpu time    1.2000: real time    1.2128
  RMM-DIIS:  cpu time    1.1680: real time    1.1675
    ORTHCH:  cpu time    0.4960: real time    0.4956
       DOS:  cpu time    0.0000: real time    0.0005
    --------------------------------------------
      LOOP:  cpu time    2.8640: real time    2.8764

 eigenvalue-minimisations  :  1034
 total energy-change (2. order) :-0.1979083E+02  (-0.1451353E+02)
 number of electron    1644.0000000 magnetization 
 augmentation part     1644.0000000 magnetization 

 Free energy of the ion-electron system (eV)
  ---------------------------------------------------
  alpha Z        PSCENC =      9121.47144996
  Ewald energy   TEWEN  =     -5452.09988378
  -Hartree energ DENC   =   -138873.57095626
  -exchange      EXHF   =         0.00000000
  -V(xc)+E(xc)   XCENC  =     -3842.32964863
  PAW double counting   =    108888.23390046   -99617.05824495
  entropy T*S    EENTRO =        -0.35531246
  eigenvalues    EBANDS =     -3160.16698920
  atomic energy  EATOM  =    131994.37304538
  Solvation  Ediel_sol  =         0.00000000
  ---------------------------------------------------
  free energy    TOTEN  =      -941.50263947 eV

  energy without entropy =     -941.14732702  energy(sigma->0) =     -941.32498324


--------------------------------------------------------------------------------------------------------




--------------------------------------- Iteration      1(   9)  ---------------------------------------


    EDDIAG:  cpu time    1.2040: real time    1.2132
  RMM-DIIS:  cpu time    2.7280: real time    2.7305
    ORTHCH:  cpu time    0.4960: real time    0.4967
       DOS:  cpu time    0.0040: real time    0.0005
    --------------------------------------------
      LOOP:  cpu time    4.4320: real time    4.4409

 eigenvalue-minimisations  :  2557
 total energy-change (2. order) :-0.1105795E+02  (-0.9883598E+01)
 number of electron    1644.0000000 magnetization 
 augmentation part     1644.0000000 magnetization 

 Free energy of the ion-electron system (eV)
  ---------------------------------------------------
  alpha Z        PSCENC =      9121.47144996
  Ewald energy   TEWEN  =     -5452.09988378
  -Hartree energ DENC   =   -138873.57095626
  -exchange      EXHF   =         0.00000000
  -V(xc)+E(xc)   XCENC  =     -3842.32964863
  PAW double counting   =    108888.23390046   -99617.05824495
  entropy T*S    EENTRO =        -0.39965138
  eigenvalues    EBANDS =     -3171.18060342
  atomic energy  EATOM  =    131994.37304538
  Solvation  Ediel_sol  =         0.00000000
  ---------------------------------------------------
  free energy    TOTEN  =      -952.56059261 eV

  energy without entropy =     -952.16094123  energy(sigma->0) =     -952.36076692


--------------------------------------------------------------------------------------------------------




--------------------------------------- Iteration      1(  10)  ---------------------------------------


    EDDIAG:  cpu time    1.2000: real time    1.2117
  RMM-DIIS:  cpu time    3.2000: real time    3.2030
    ORTHCH:  cpu time    0.4960: real time    0.4957
       DOS:  cpu time    0.0000: real time    0.0005
    --------------------------------------------
      LOOP:  cpu time    4.8960: real time    4.9109

 eigenvalue-minimisations  :  3063
 total energy-change (2. order) :-0.1042728E+01  (-0.6413277E+00)
 number of electron    1644.0000000 magnetization 
 augmentation part     1644.0000000 magnetization 

 Free energy of the ion-electron system (eV)
  ---------------------------------------------------
  alpha Z        PSCENC =      9121.47144996
  Ewald energy   TEWEN  =     -5452.09988378
  -Hartree energ DENC   =   -138873.57095626
  -exchange      EXHF   =         0.00000000
  -V(xc)+E(xc)   XCENC  =     -3842.32964863
  PAW double counting   =    108888.23390046   -99617.05824495
  entropy T*S    EENTRO =        -0.37949146
  eigenvalues    EBANDS =     -3172.24349132
  atomic energy  EATOM  =    131994.37304538
  Solvation  Ediel_sol  =         0.00000000
  ---------------------------------------------------
  free energy    TOTEN  =      -953.60332059 eV

  energy without entropy =     -953.22382913  energy(sigma->0) =     -953.41357486


--------------------------------------------------------------------------------------------------------




--------------------------------------- Iteration      1(  11)  ---------------------------------------


    EDDIAG:  cpu time    1.1960: real time    1.2045
  RMM-DIIS:  cpu time    2.9720: real time    2.9718
    ORTHCH:  cpu time    0.4920: real time    0.4950
       DOS:  cpu time    0.0040: real time    0.0005
    --------------------------------------------
      LOOP:  cpu time    4.6640: real time    4.6718

 eigenvalue-minimisations  :  2871
 total energy-change (2. order) : 0.4924053E-02  (-0.1245869E-01)
 number of electron    1644.0000000 magnetization 
 augmentation part     1644.0000000 magnetization 

 Free energy of the ion-electron system (eV)
  ---------------------------------------------------
  alpha Z        PSCENC =      9121.47144996
  Ewald energy   TEWEN  =     -5452.09988378
  -Hartree energ DENC   =   -138873.57095626
  -exchange      EXHF   =         0.00000000
  -V(xc)+E(xc)   XCENC  =     -3842.32964863
  PAW double counting   =    108888.23390046   -99617.05824495
  entropy T*S    EENTRO =        -0.37946382
  eigenvalues    EBANDS =     -3172.23859490
  atomic energy  EATOM  =    131994.37304538
  Solvation  Ediel_sol  =         0.00000000
  ---------------------------------------------------
  free energy    TOTEN  =      -953.59839653 eV

  energy without entropy =     -953.21893271  energy(sigma->0) =     -953.40866462


--------------------------------------------------------------------------------------------------------




--------------------------------------- Iteration      1(  12)  ---------------------------------------


    EDDIAG:  cpu time    1.2000: real time    1.2137
  RMM-DIIS:  cpu time    3.1520: real time    3.1497
    ORTHCH:  cpu time    0.4960: real time    0.4975
       DOS:  cpu time    0.0000: real time    0.0008
    CHARGE:  cpu time    0.1240: real time    0.1233
    MIXING:  cpu time    0.0040: real time    0.0011
    --------------------------------------------
      LOOP:  cpu time    4.9760: real time    4.9862

 eigenvalue-minimisations  :  3013
 total energy-change (2. order) : 0.9389629E-04  (-0.6512575E-03)
 number of electron    1643.9999164 magnetization 
 augmentation part      646.0393323 magnetization 

 Broyden mixing:
  rms(total) = 0.54368E+01    rms(broyden)= 0.53973E+01
  rms(prec ) = 0.62402E+01
  weight for this iteration     100.00

 Free energy of the ion-electron system (eV)
  ---------------------------------------------------
  alpha Z        PSCENC =      9121.47144996
  Ewald energy   TEWEN  =     -5452.09988378
  -Hartree energ DENC   =   -138873.57095626
  -exchange      EXHF   =         0.00000000
  -V(xc)+E(xc)   XCENC  =     -3842.32964863
  PAW double counting   =    108888.23390046   -99617.05824495
  entropy T*S    EENTRO =        -0.37946428
  eigenvalues    EBANDS =     -3172.23850054
  atomic energy  EATOM  =    131994.37304538
  Solvation  Ediel_sol  =         0.00000000
  ---------------------------------------------------
  free energy    TOTEN  =      -953.59830264 eV

  energy without entropy =     -953.21883835  energy(sigma->0) =     -953.40857049


--------------------------------------------------------------------------------------------------------




--------------------------------------- Iteration      1(  13)  ---------------------------------------


    POTLOK:  cpu time    0.0600: real time    0.0741
    SETDIJ:  cpu time    0.0120: real time    0.0111
    EDDIAG:  cpu time    1.2040: real time    1.2032
  RMM-DIIS:  cpu time    2.3920: real time    2.3914
    ORTHCH:  cpu time    0.4960: real time    0.4988
       DOS:  cpu time    0.0040: real time    0.0008
    CHARGE:  cpu time    0.1160: real time    0.1172
    MIXING:  cpu time    0.0000: real time    0.0012
    --------------------------------------------
      LOOP:  cpu time    4.2840: real time    4.2979

 eigenvalue-minimisations  :  2272
 total energy-change (2. order) :-0.3929796E+03  (-0.8152395E+02)
 number of electron    1643.9999339 magnetization 
 augmentation part      642.6491744 magnetization 

 Broyden mixing:
  rms(total) = 0.11259E+02    rms(broyden)= 0.11246E+02
  rms(prec ) = 0.20338E+02
  weight for this iteration     100.00

 eigenvalues of (default mixing * dielectric matrix)
  average eigenvalue GAMMA=   0.2091
  0.2091

 Free energy of the ion-electron system (eV)
  ---------------------------------------------------
  alpha Z        PSCENC =      9121.47144996
  Ewald energy   TEWEN  =     -5452.09988378
  -Hartree energ DENC   =   -139200.46733163
  -exchange      EXHF   =         0.00000000
  -V(xc)+E(xc)   XCENC  =     -3848.41496229
  PAW double counting   =    109370.28896853  -100239.85408785
  entropy T*S    EENTRO =        -0.28124765
  eigenvalues    EBANDS =     -3091.59383686
  atomic energy  EATOM  =    131994.37304538
  Solvation  Ediel_sol  =         0.00000000
  ---------------------------------------------------
  free energy    TOTEN  =     -1346.57788618 eV

  energy without entropy =    -1346.29663853  energy(sigma->0) =    -1346.43726236


--------------------------------------------------------------------------------------------------------




--------------------------------------- Iteration      1(  14)  ---------------------------------------


    POTLOK:  cpu time    0.0640: real time    0.0737
    SETDIJ:  cpu time    0.0120: real time    0.0110
    EDDIAG:  cpu time    1.2000: real time    1.2001
  RMM-DIIS:  cpu time    2.4120: real time    2.4143
    ORTHCH:  cpu time    0.4960: real time    0.4962
       DOS:  cpu time    0.0000: real time    0.0009
    CHARGE:  cpu time    0.1160: real time    0.1145
[...]
   0.336E+02 0.134E+02 -.743E+03   -.442E+02 -.164E+02 0.748E+03   0.968E+01 0.185E+01 -.541E+01   0.262E+00 0.110E+01 0.369E+00
   0.339E+02 0.128E+02 -.742E+03   -.442E+02 -.164E+02 0.748E+03   0.962E+01 0.184E+01 -.558E+01   0.375E-01 0.174E+01 0.167E+00
   0.339E+02 -.133E+02 -.742E+03   -.442E+02 0.164E+02 0.748E+03   0.972E+01 -.187E+01 -.546E+01   0.591E-02 -.132E+01 -.956E-01
   0.336E+02 -.137E+02 -.741E+03   -.442E+02 0.164E+02 0.748E+03   0.976E+01 -.190E+01 -.543E+01   0.213E+00 -.873E+00 -.149E+01
   -.182E+02 -.268E+00 -.820E+03   0.303E+02 -.777E-03 0.839E+03   -.113E+02 -.234E-01 -.172E+02   -.318E+00 0.324E+00 -.166E+01
   -.185E+02 -.126E-01 -.819E+03   0.303E+02 -.615E-03 0.839E+03   -.112E+02 -.286E-01 -.172E+02   -.736E-01 0.793E-01 -.228E+01
   -.368E+02 0.132E+02 -.740E+03   0.480E+02 -.163E+02 0.746E+03   -.104E+02 0.167E+01 -.465E+01   -.237E+00 0.148E+01 -.119E+01
   -.360E+02 0.136E+02 -.741E+03   0.480E+02 -.162E+02 0.746E+03   -.103E+02 0.165E+01 -.460E+01   -.106E+01 0.104E+01 -.878E+00
   -.369E+02 -.129E+02 -.741E+03   0.480E+02 0.163E+02 0.746E+03   -.103E+02 -.161E+01 -.479E+01   -.172E+00 -.175E+01 -.691E+00
   -.376E+02 -.132E+02 -.741E+03   0.480E+02 0.163E+02 0.746E+03   -.103E+02 -.162E+01 -.476E+01   0.531E+00 -.147E+01 0.124E+00
   0.159E+01 0.155E+02 -.823E+03   -.257E+01 -.107E+02 0.843E+03   0.153E+00 -.545E+01 -.174E+02   0.827E+00 0.556E+00 -.186E+01
   0.232E+01 0.151E+02 -.823E+03   -.257E+01 -.107E+02 0.843E+03   0.177E+00 -.548E+01 -.173E+02   0.571E-01 0.997E+00 -.222E+01
   0.901E+00 -.250E+02 -.868E+03   -.412E+00 0.323E+02 0.885E+03   0.219E+00 -.653E+01 -.165E+02   -.731E+00 -.515E+00 -.290E+00
   0.820E+00 -.263E+02 -.868E+03   -.412E+00 0.323E+02 0.885E+03   0.224E+00 -.654E+01 -.165E+02   -.665E+00 0.799E+00 -.428E+00
   -.136E+01 -.161E+02 -.740E+03   0.128E+01 0.221E+02 0.746E+03   0.849E-02 -.425E+01 -.520E+01   0.643E-01 -.175E+01 -.105E+01
   -.169E+01 -.165E+02 -.740E+03   0.128E+01 0.221E+02 0.746E+03   0.385E-01 -.425E+01 -.516E+01   0.359E+00 -.130E+01 -.121E+01
   0.217E+01 -.157E+02 -.824E+03   -.256E+01 0.107E+02 0.843E+03   0.293E+00 0.544E+01 -.174E+02   0.940E-01 -.339E+00 -.154E+01
   0.261E+01 -.148E+02 -.823E+03   -.257E+01 0.107E+02 0.843E+03   0.307E+00 0.548E+01 -.173E+02   -.368E+00 -.135E+01 -.191E+01
   -.984E+00 0.164E+02 -.740E+03   0.128E+01 -.221E+02 0.746E+03   0.148E+00 0.429E+01 -.517E+01   -.442E+00 0.142E+01 -.102E+01
   -.628E+00 0.158E+02 -.741E+03   0.128E+01 -.221E+02 0.746E+03   0.174E+00 0.427E+01 -.506E+01   -.825E+00 0.200E+01 -.540E+00
   -.350E+00 0.259E+02 -.868E+03   -.412E+00 -.323E+02 0.885E+03   0.745E-01 0.644E+01 -.165E+02   0.697E+00 -.246E+00 -.511E+00
   -.370E+00 0.257E+02 -.867E+03   -.454E+00 -.323E+02 0.885E+03   0.107E+00 0.641E+01 -.165E+02   0.710E+00 -.189E-01 -.894E+00
 -----------------------------------------------------------------------------------------------
   0.229E+01 0.650E-01 -.670E+01   0.523E-12 0.924E-12 -.197E-10   -.221E+01 -.209E+00 -.255E+03   -.323E+00 -.633E-01 0.261E+03


 POSITION                                       TOTAL-FORCE (eV/Angst)
 -----------------------------------------------------------------------------------
      1.61427      0.00000     11.71692         0.010093      0.001136     -0.142894
     11.29990      0.00000     11.71692         0.002728     -0.007627     -0.149305
     13.72131     12.58200     11.71692         0.007223     -0.017758     -0.149260
     23.40693     12.58200     11.71692         0.004187     -0.022260     -0.149855
      6.45709     11.18400     11.71692         0.000168     -0.004662     -0.137864
     16.14271     11.18400     11.71692        -0.000324     -0.006968     -0.155592
      8.87849      9.78600     11.71692         0.027752      0.000093     -0.094660
     18.56412      9.78600     11.71692         0.027148     -0.006763     -0.113185
      1.61427      2.79600     11.71692        -0.013479     -0.039163     -0.103738
     11.29990      2.79600     11.71692        -0.004863     -0.022252     -0.134918
      4.03568      1.39800     11.71692         0.021740      0.019516     -0.120619
     13.72131      1.39800     11.71692         0.031732      0.031191     -0.139478
      6.45709      0.00000     11.71692         0.048113     -0.017109     -0.139721
     16.14271      0.00000     11.71692         0.049001     -0.016553     -0.145102
      8.87849     12.58200     11.71692         0.020424     -0.012906     -0.115791
     18.56412     12.58200     11.71692         0.021317     -0.020834     -0.133841
     11.29990      5.59200     11.71692         0.034473      0.037542     -0.107091
     20.98553      5.59200     11.71692         0.023695      0.040054     -0.035873
      4.03568      4.19400     11.71692         0.063190     -0.012255     -0.112137
     13.72131      4.19400     11.71692         0.045342     -0.001882     -0.140297
      6.45709      2.79600     11.71692        -0.035708      0.032265     -0.076390
     16.14271      2.79600     11.71692        -0.036024      0.036000     -0.095759
      8.87849      1.39800     11.71692         0.025724     -0.014268     -0.096562
     18.56412      1.39800     11.71692         0.031699     -0.008110     -0.096653
     11.29990      8.38800     11.71692        -0.004272     -0.009584     -0.190096
     20.98553      8.38800     11.71692        -0.011162      0.008688     -0.174890
      4.03568      6.99000     11.71692         0.006912     -0.021239     -0.228269
     13.72131      6.99000     11.71692        -0.001928     -0.034261     -0.239101
      6.45709      5.59200     11.71692        -0.032565      0.016025     -0.212904
     16.14271      5.59200     11.71692        -0.038989      0.007826     -0.204366
      8.87849      4.19400     11.71692         0.003485      0.017195     -0.101506
     18.56412      4.19400     11.71692        -0.004960      0.015245     -0.097808
     11.29990     11.18400     11.71692        -0.001152     -0.026329     -0.102681
     20.98553     11.18400     11.71692         0.003320     -0.028111     -0.119574
      4.03568      9.78600     11.71692        -0.006214     -0.003405     -0.155980
     13.72131      9.78600     11.71692        -0.004342     -0.006332     -0.152580
      6.45709      8.38800     11.71692        -0.012843     -0.058258     -0.057759
     16.14271      8.38800     11.71692        -0.003377     -0.067353     -0.073604
      8.87849      6.99000     11.71692         0.009851      0.011456     -0.187730
     18.56412      6.99000     11.71692        -0.002099      0.023013     -0.201010
      0.00000      0.00000      0.00000        -0.092629      0.018304      0.122904
      9.68563      0.00000      0.00000        -0.120824      0.011863      0.111799
     12.10704     12.58200      0.00000         0.057597      0.079057      0.010393
     21.79266     12.58200      0.00000         0.040961      0.060110      0.013511
      4.84281     11.18400      0.00000        -0.015885     -0.075283     -0.015265
     14.52844     11.18400      0.00000        -0.010538     -0.061385     -0.026039
      7.26422      9.78600      0.00000        -0.221820      0.025827      0.002553
     16.94985      9.78600      0.00000        -0.217540      0.035269     -0.009578
      9.68563      2.79600      0.00000        -0.006600      0.087987     -0.000580
     19.37126      2.79600      0.00000         0.004209      0.080459      0.003962
      2.42141      1.39800      0.00000        -0.036615     -0.004700     -0.099595
     12.10704      1.39800      0.00000        -0.046038      0.010238     -0.098682
      4.84281      0.00000      0.00000        -0.060016      0.005468     -0.142963
     14.52844      0.00000      0.00000        -0.042164      0.000228     -0.147719
      7.26422     12.58200      0.00000        -0.076331     -0.005408     -0.076132
     16.94985     12.58200      0.00000        -0.090864     -0.020437     -0.088670
      9.68563      5.59200      0.00000         0.073806     -0.078229     -0.436679
     19.37126      5.59200      0.00000         0.067731     -0.091872     -0.423175
      2.42141      4.19400      0.00000        -0.200369     -0.062971      0.002349
     12.10704      4.19400      0.00000        -0.173086     -0.025281     -0.024630
      4.84281      2.79600      0.00000        -0.010248      0.150855      0.178242
     14.52844      2.79600      0.00000         0.016694      0.168134      0.158289
      7.26422      1.39800      0.00000         0.000624     -0.079893      0.007676
     16.94985      1.39800      0.00000         0.009654     -0.064095      0.005521
      9.68563      8.38800      0.00000        -0.127916      0.030616     -0.089943
     19.37126      8.38800      0.00000        -0.105445      0.028490     -0.085557
     12.10704      6.99000      0.00000        -0.037800     -0.290072     -0.375012
     21.79266      6.99000      0.00000        -0.039768     -0.254010     -0.346430
      4.84281      5.59200      0.00000        -0.103657     -0.024312     -0.054506
     14.52844      5.59200      0.00000        -0.110349     -0.042952     -0.074339
      7.26422      4.19400      0.00000        -0.020869     -0.137326     -0.124796
     16.94985      4.19400      0.00000        -0.046824     -0.138773     -0.131720
      9.68563     11.18400      0.00000         0.011605     -0.123832      0.214689
     19.37126     11.18400      0.00000         0.028098     -0.142875      0.214695
     12.10704      9.78600      0.00000         0.011535      0.153206     -0.172437
     21.79266      9.78600      0.00000         0.009208      0.155307     -0.161541
      4.84281      8.38800      0.00000         0.020822      0.091297     -0.453565
     14.52844      8.38800      0.00000         0.022835      0.081068     -0.466555
      7.26422      6.99000      0.00000        -0.056346      0.308674     -0.356975
     16.94985      6.99000      0.00000        -0.066117      0.303583     -0.354074
      0.77457      1.39996      2.24436         0.090509     -0.004478      0.172338
     10.46020      1.39996      2.24436         0.087233     -0.016029      0.173450
      3.15403      0.00000      2.27471         0.064676     -0.009329      0.089901
     12.83966      0.00000      2.27471         0.054975     -0.010511      0.089572
      5.61739     12.58004      2.24436         0.078621      0.008531      0.165725
     15.30302     12.58004      2.24436         0.075472      0.014791      0.169761
      8.02696     11.18461      2.26075         0.028692      0.016774      0.074201
     17.71258     11.18461      2.26075         0.022219      0.015988      0.088998
     10.34792      4.23373      2.29107         0.070423     -0.057694      0.010295
     20.03355      4.23373      2.29107         0.074103     -0.060486      0.024473
      3.18414      2.79540      2.26075        -0.022731     -0.037376      0.117288
     12.86976      2.79540      2.26075        -0.013979     -0.030069      0.115720
      5.54783      1.39080      2.24617         0.064891      0.015138      0.231696
     15.23346      1.39080      2.24617         0.061090      0.017292      0.240494
      8.00410      0.00000      2.37920         0.043140     -0.000084      0.033694
     17.68973      0.00000      2.37920         0.041601      0.001854      0.049094
     10.41073      6.99627      2.23309         0.053437      0.006627      0.124083
     20.09636      6.99627      2.23309         0.052390      0.017101      0.140628
      3.16404      5.51402      2.29762         0.069680      0.076334      0.124245
     12.84967      5.51402      2.29762         0.065509      0.065630      0.133367
      5.64606      4.22365      2.29864        -0.014742     -0.041830     -0.013241
     15.33168      4.22365      2.29864        -0.020883     -0.046604     -0.036729
      7.99965      2.74251      2.27934         0.014579      0.061959      0.041662
     17.68528      2.74251      2.27934         0.000552      0.061140      0.029075
     10.48888      9.75635      2.29864        -0.061011      0.061836      0.011798
     20.17450      9.75635      2.29864        -0.069453      0.074602     -0.008931
      3.13764      8.28232      2.16085         0.056795      0.082163      0.261432
     12.82327      8.28232      2.16085         0.067637      0.085932      0.262581
      5.56792      6.98373      2.23309         0.088051      0.017269      0.138244
     15.25355      6.98373      2.23309         0.078353      0.013294      0.141625
      7.98045      5.69768      2.16085         0.097611     -0.074171      0.227779
     17.66608      5.69768      2.16085         0.084138     -0.071182      0.203824
     10.39065     12.58920      2.24617         0.064298     -0.006943      0.226755
     20.07628     12.58920      2.24617         0.067975     -0.012408      0.231253
     12.84246     11.23749      2.27934         0.045757     -0.091284      0.027609
     22.52809     11.23749      2.27934         0.047033     -0.106630     -0.002413
      5.50511      9.74627      2.29107         0.034817      0.065443     -0.020541
     15.19074      9.74627      2.29107         0.033887      0.040425      0.030446
      8.00686      8.46598      2.29762         0.020019     -0.060883      0.107125
     17.69249      8.46598      2.29762         0.024867     -0.063273      0.102181
      3.18414      0.00000      4.93891         0.001577      0.009737      0.333840
     12.86977      0.00000      4.93891         0.000061      0.014128      0.337616
     12.87831      9.31805      4.63826        -0.017930     -0.033179      0.124817
     22.56394      9.31805      4.63826        -0.023371     -0.017830      0.127355
      8.03550      4.66194      4.63826        -0.030096      0.048249      0.102754
     17.72113      4.66194      4.63826        -0.042401      0.053402      0.112303
     11.37894     12.58796      4.74227        -0.031990      0.020299      0.105280
     21.06457     12.58796      4.74227        -0.027961      0.027506      0.106162
      6.60505      7.85365      4.66841        -0.114323      0.234419     -0.049394
     16.29068      7.85365      4.66841        -0.113536      0.231506     -0.056132
      1.75553      3.13250      4.70389         0.040576      0.296262      0.049765
     11.44116      3.13250      4.70389         0.056291      0.291968      0.036421
      4.61481      3.13762      4.74222        -0.063114      0.266709     -0.036019
     14.30044      3.13762      4.74222        -0.063078      0.256884     -0.036802
      4.66291     12.58896      4.74397         0.048501     -0.066436      0.089762
     14.34854     12.58896      4.74397         0.054134     -0.058157      0.082390
      9.45986      7.85875      4.68223         0.069925      0.187319     -0.039670
     19.14549      7.85875      4.68223         0.088563      0.177590     -0.038822
      6.53612      1.39204      4.74227        -0.035805      0.040615      0.083307
     16.22175      1.39204      4.74227        -0.026328      0.030567      0.083680
      6.59835     10.84750      4.70389         0.041219     -0.217868      0.012229
     16.28398     10.84750      4.70389         0.053136     -0.214195      0.004821
     11.44787      6.12635      4.66841        -0.098182     -0.213670     -0.058705
     21.13350      6.12635      4.66841        -0.102652     -0.221379     -0.048941
      9.45762     10.84239      4.74222        -0.054171     -0.328700     -0.047401
     19.14325     10.84239      4.74222        -0.054282     -0.320032     -0.042848
      4.61705      6.12126      4.68223         0.066113     -0.218043     -0.032906
     14.30268      6.12126      4.68223         0.065371     -0.216138     -0.034816
      9.50573      1.39105      4.74397         0.063223      0.003629      0.116617
     19.19136      1.39105      4.74397         0.052635      0.012381      0.131476
      5.27362      0.00000      5.25562        -0.525759     -0.034397      0.191236
     14.95925      0.00000      5.25562        -0.541517     -0.033766      0.182095
      5.32715      9.35894      4.35907        -0.595883     -0.066725      0.156101
     15.01278      9.35894      4.35907        -0.590231     -0.047618      0.100151
     10.16996      4.62106      4.35907        -0.545324     -0.029585      0.074990
     19.85559      4.62106      4.35907        -0.562694     -0.026149      0.050063
      1.08824      0.00000      5.24786         0.504953      0.032252      0.200108
     10.77387      0.00000      5.24786         0.504758      0.038679      0.183773
     10.73485      9.36280      4.36174         0.569060      0.072338      0.058660
     20.42047      9.36280      4.36174         0.568790      0.072566      0.080515
      5.89204      4.61720      4.36174         0.611808      0.003354      0.119863
     15.57766      4.61720      4.36174         0.606370      0.010409      0.135948
      8.02377     12.05017      5.21214         0.007426     -0.080659      0.405562
     17.70940     12.05017      5.21214        -0.013824     -0.088222      0.380431
      3.19137      7.38006      5.09198        -0.022319      0.257695      0.424149
     12.87700      7.38006      5.09198        -0.031464      0.256592      0.403565
      8.02284      2.66929      4.40241        -0.004522      0.044858     -0.369583
     17.70847      2.66929      4.40241        -0.012588      0.055419     -0.362534
      3.18096      1.92984      5.21214        -0.002070      0.063126      0.402895
     12.86659      1.92984      5.21214        -0.013222      0.082517      0.378636
     12.86565     11.31071      4.40241         0.008036     -0.056067     -0.390492
     22.55128     11.31071      4.40241         0.006421     -0.051585     -0.341289
      8.03418      6.59994      5.09198         0.011917     -0.275334      0.431897
     17.72000      6.59994      5.09198        -0.006192     -0.269439      0.431582
 -----------------------------------------------------------------------------------
    total drift:                               -0.242343     -0.207101     -1.356160


--------------------------------------------------------------------------------------------------------



  FREE ENERGIE OF THE ION-ELECTRON SYSTEM (eV)
  ---------------------------------------------------
  free  energy   TOTEN  =      -884.06049916 eV

  energy  without entropy=     -883.63850264  energy(sigma->0) =     -883.84950090



--------------------------------------------------------------------------------------------------------


    POTLOK:  cpu time    0.0760: real time    0.0758


--------------------------------------------------------------------------------------------------------


     LOOP+:  cpu time  163.9200: real time  164.5074
    4ORBIT:  cpu time    0.0000: real time    0.0000

 total amount of memory used by VASP MPI-rank0    67427. kBytes
=======================================================================

   base      :      30000. kBytes
   nonlr-proj:      13577. kBytes
   fftplans  :       3734. kBytes
   grid      :       5552. kBytes
   one-center:        684. kBytes
   wavefun   :      13880. kBytes

  
  
 General timing and accounting informations for this job:
 ========================================================
  
                  Total CPU time used (sec):      167.640
                            User time (sec):      165.436
                          System time (sec):        2.204
                         Elapsed time (sec):      168.625
  
                   Maximum memory used (kb):      159660.
                   Average memory used (kb):           0.
  
                          Minor page faults:       564611
                          Major page faults:           24
                 Voluntary context switches:          562
